<?xml version="1.0" encoding="UTF-8"?>

<!-- generated on 10/13/14 13:37:38 by SUMO Version dev-SVN-r17179
<?xml version="1.0" encoding="UTF-8"?>

<configuration xmlns:xsi="http://www.w3.org/2001/XMLSchema-instance" xsi:noNamespaceSchemaLocation="http://sumo-sim.org/xsd/sumoConfiguration.xsd">

    <input>
        <net-file value="net.net.xml"/>
        <route-files value="input_routes.rou.xml"/>
        <additional-files value="input_additional.add.xml"/>
    </input>

    <output>
        <tripinfo-output value="tripinfos.xml"/>
    </output>

    <report>
        <verbose value="true"/>
        <xml-validation value="never"/>
        <no-step-log value="true"/>
    </report>

</configuration>
-->

<tripinfos xmlns:xsi="http://www.w3.org/2001/XMLSchema-instance" xsi:noNamespaceSchemaLocation="http://sumo-sim.org/xsd/tripinfo_file.xsd">
    <containerinfo id="container0" depart="0.00">
        <stop arrival="0.00"/>
        <transfer arrival="47.00"/>
        <transport depart="121.00" arrival="140.00"/>
    </containerinfo>
    <containerinfo id="container1" depart="0.00">
        <stop arrival="0.00"/>
        <transfer arrival="47.00"/>
        <transport depart="139.00" arrival="188.00"/>
    </containerinfo>
    <tripinfo id="truck0" depart="50.00" departLane="1/4to1/3_0" departPos="25.10" departSpeed="0.00" departDelay="0.00" arrival="193.00" arrivalLane="1/4to1/3_0" arrivalPos="90.50" arrivalSpeed="13.90" duration="143.00" routeLength="430.40" waitSteps="99" timeLoss="110.12" rerouteNo="0" devices="tripinfo_truck0 container_truck0" vType="truck" vaporized=""/>
    <tripinfo id="truck1" depart="55.00" departLane="1/4to1/3_0" departPos="25.10" departSpeed="0.00" departDelay="5.00" arrival="211.00" arrivalLane="1/4to1/3_0" arrivalPos="90.50" arrivalSpeed="13.90" duration="156.00" routeLength="430.40" waitSteps="103" timeLoss="123.09" rerouteNo="0" devices="tripinfo_truck1 container_truck1" vType="truck" vaporized=""/>
</tripinfos>
