<?xml version="1.0" encoding="UTF-8"?>

<!-- generated on Thu Jan 30 17:06:30 2014 by SUMO sumo Version dev-SVN-r15532
<?xml version="1.0" encoding="UTF-8"?>

<configuration xmlns:xsi="http://www.w3.org/2001/XMLSchema-instance" xsi:noNamespaceSchemaLocation="http://sumo-sim.org/xsd/sumoConfiguration.xsd">

    <input>
        <net-file value="net.net.xml"/>
        <additional-files value="input_additional.add.xml,input_additional2.add.xml"/>
    </input>

    <output>
        <netstate-dump value="rawdump.xml"/>
    </output>

    <report>
        <xml-validation value="never"/>
        <no-step-log value="true"/>
    </report>

</configuration>
-->

<netstate xmlns:xsi="http://www.w3.org/2001/XMLSchema-instance" xsi:noNamespaceSchemaLocation="http://sumo-sim.org/xsd/netstate_file.xsd">
    <timestep time="0.00">
        <edge id="CS">
            <person id="p0" pos="20.00" angle="180.00" stage="walking"/>
        </edge>
    </timestep>
    <timestep time="1.00">
        <edge id="CS">
            <person id="p0" pos="18.61" angle="180.00" stage="walking"/>
        </edge>
    </timestep>
    <timestep time="2.00">
        <edge id="CS">
            <person id="p0" pos="17.22" angle="180.00" stage="walking"/>
        </edge>
    </timestep>
    <timestep time="3.00">
        <edge id="CS">
            <person id="p0" pos="15.83" angle="180.00" stage="walking"/>
        </edge>
    </timestep>
    <timestep time="4.00">
        <edge id="CS">
            <person id="p0" pos="14.44" angle="180.00" stage="walking"/>
        </edge>
    </timestep>
    <timestep time="5.00">
        <edge id="CS">
            <person id="p0" pos="13.06" angle="180.00" stage="walking"/>
        </edge>
    </timestep>
    <timestep time="6.00">
        <edge id="CS">
            <person id="p0" pos="11.67" angle="180.00" stage="walking"/>
        </edge>
    </timestep>
    <timestep time="7.00">
        <edge id="CS">
            <person id="p0" pos="10.28" angle="180.00" stage="walking"/>
        </edge>
    </timestep>
    <timestep time="8.00">
        <edge id="CS">
            <person id="p0" pos="8.89" angle="180.00" stage="walking"/>
        </edge>
    </timestep>
    <timestep time="9.00">
        <edge id="CS">
            <person id="p0" pos="7.50" angle="180.00" stage="walking"/>
        </edge>
    </timestep>
    <timestep time="10.00">
        <edge id="CS">
            <person id="p0" pos="6.11" angle="180.00" stage="walking"/>
        </edge>
    </timestep>
    <timestep time="11.00">
        <edge id="CS">
            <person id="p0" pos="4.72" angle="180.00" stage="walking"/>
        </edge>
    </timestep>
    <timestep time="12.00">
        <edge id="CS">
            <person id="p0" pos="3.33" angle="180.00" stage="walking"/>
        </edge>
    </timestep>
    <timestep time="13.00">
        <edge id="CS">
            <person id="p0" pos="1.94" angle="180.00" stage="walking"/>
        </edge>
    </timestep>
    <timestep time="14.00">
        <edge id="CS">
            <person id="p0" pos="0.56" angle="180.00" stage="walking"/>
        </edge>
    </timestep>
    <timestep time="15.00">
        <edge id=":C_107">
            <person id="p0" pos="0.00" angle="148.50" stage="walking"/>
        </edge>
    </timestep>
    <timestep time="16.00">
        <edge id=":C_107">
            <person id="p0" pos="1.39" angle="148.50" stage="walking"/>
        </edge>
    </timestep>
    <timestep time="17.00">
        <edge id=":C_107">
            <person id="p0" pos="2.78" angle="148.50" stage="walking"/>
        </edge>
    </timestep>
    <timestep time="18.00">
        <edge id=":C_103">
            <person id="p0" pos="0.00" angle="90.00" stage="walking"/>
        </edge>
    </timestep>
    <timestep time="19.00">
        <edge id=":C_103">
            <person id="p0" pos="1.39" angle="90.00" stage="walking"/>
        </edge>
    </timestep>
    <timestep time="20.00">
        <edge id=":C_103">
            <person id="p0" pos="2.78" angle="90.00" stage="walking"/>
        </edge>
    </timestep>
    <timestep time="21.00">
        <edge id=":C_103">
            <person id="p0" pos="4.17" angle="90.00" stage="walking"/>
        </edge>
    </timestep>
    <timestep time="22.00">
        <edge id=":C_103">
            <person id="p0" pos="5.56" angle="90.00" stage="walking"/>
        </edge>
    </timestep>
    <timestep time="23.00">
        <edge id=":C_103">
            <person id="p0" pos="6.94" angle="90.00" stage="walking"/>
        </edge>
    </timestep>
    <timestep time="24.00">
        <edge id=":C_103">
            <person id="p0" pos="8.33" angle="90.00" stage="walking"/>
        </edge>
    </timestep>
    <timestep time="25.00">
        <edge id=":C_103">
            <person id="p0" pos="9.72" angle="90.00" stage="walking"/>
        </edge>
    </timestep>
    <timestep time="26.00">
        <edge id=":C_103">
            <person id="p0" pos="11.11" angle="90.00" stage="walking"/>
        </edge>
    </timestep>
    <timestep time="27.00">
        <edge id=":C_103">
            <person id="p0" pos="12.50" angle="90.00" stage="walking"/>
        </edge>
    </timestep>
    <timestep time="28.00">
        <edge id=":C_103">
            <person id="p0" pos="13.89" angle="90.00" stage="walking"/>
        </edge>
    </timestep>
    <timestep time="29.00">
        <edge id=":C_103">
            <person id="p0" pos="15.28" angle="90.00" stage="walking"/>
        </edge>
    </timestep>
    <timestep time="30.00">
        <edge id=":C_103">
            <person id="p0" pos="16.67" angle="90.00" stage="walking"/>
        </edge>
    </timestep>
    <timestep time="31.00">
        <edge id=":C_103">
            <person id="p0" pos="18.06" angle="90.00" stage="walking"/>
        </edge>
    </timestep>
    <timestep time="32.00">
        <edge id=":C_103">
            <person id="p0" pos="19.44" angle="90.00" stage="walking"/>
        </edge>
    </timestep>
    <timestep time="33.00">
        <edge id=":C_106">
            <person id="p0" pos="1.39" angle="31.50" stage="walking"/>
        </edge>
    </timestep>
    <timestep time="34.00">
        <edge id=":C_106">
            <person id="p0" pos="2.78" angle="31.50" stage="walking"/>
        </edge>
    </timestep>
    <timestep time="35.00">
        <edge id="SC">
            <person id="p0" pos="84.66" angle="0.00" stage="walking"/>
        </edge>
    </timestep>
    <timestep time="36.00">
        <edge id="SC">
            <person id="p0" pos="83.27" angle="0.00" stage="walking"/>
        </edge>
    </timestep>
    <timestep time="37.00">
        <edge id="SC">
            <person id="p0" pos="81.88" angle="0.00" stage="walking"/>
        </edge>
    </timestep>
    <timestep time="38.00">
        <edge id="SC">
            <person id="p0" pos="80.49" angle="0.00" stage="walking"/>
        </edge>
    </timestep>
    <timestep time="39.00">
        <edge id="SC">
            <person id="p0" pos="79.11" angle="0.00" stage="walking"/>
        </edge>
    </timestep>
    <timestep time="40.00">
        <edge id="SC">
            <person id="p0" pos="77.72" angle="0.00" stage="walking"/>
        </edge>
    </timestep>
    <timestep time="41.00">
        <edge id="SC">
            <person id="p0" pos="76.33" angle="0.00" stage="walking"/>
        </edge>
    </timestep>
    <timestep time="42.00">
        <edge id="SC">
            <person id="p0" pos="74.94" angle="0.00" stage="walking"/>
        </edge>
    </timestep>
    <timestep time="43.00">
        <edge id="SC">
            <person id="p0" pos="73.55" angle="0.00" stage="walking"/>
        </edge>
    </timestep>
    <timestep time="44.00">
        <edge id="SC">
            <person id="p0" pos="72.16" angle="0.00" stage="walking"/>
        </edge>
    </timestep>
    <timestep time="45.00">
        <edge id="SC">
            <person id="p0" pos="70.77" angle="0.00" stage="walking"/>
        </edge>
    </timestep>
    <timestep time="46.00">
        <edge id="SC">
            <person id="p0" pos="69.38" angle="0.00" stage="walking"/>
        </edge>
    </timestep>
    <timestep time="47.00">
        <edge id="SC">
            <person id="p0" pos="67.99" angle="0.00" stage="walking"/>
        </edge>
    </timestep>
    <timestep time="48.00">
        <edge id="SC">
            <person id="p0" pos="66.61" angle="0.00" stage="walking"/>
        </edge>
    </timestep>
    <timestep time="49.00"/>
</netstate>
