<?xml version="1.0" encoding="UTF-8"?>

<!-- generated on 02/11/15 16:21:10 by SUMO Version dev-SVN-r17651
<?xml version="1.0" encoding="UTF-8"?>

<configuration xmlns:xsi="http://www.w3.org/2001/XMLSchema-instance" xsi:noNamespaceSchemaLocation="http://sumo.dlr.de/xsd/sumoConfiguration.xsd">

    <input>
        <net-file value="net.net.xml"/>
        <route-files value="input_routes.rou.xml"/>
        <additional-files value="input_additional.add.xml"/>
    </input>

    <output>
        <tripinfo-output value="tripinfos.xml"/>
    </output>

    <time>
        <end value="200"/>
    </time>

    <report>
        <xml-validation value="never"/>
        <no-duration-log value="true"/>
        <no-step-log value="true"/>
    </report>

</configuration>
-->

<tripinfos xmlns:xsi="http://www.w3.org/2001/XMLSchema-instance" xsi:noNamespaceSchemaLocation="http://sumo.dlr.de/xsd/tripinfo_file.xsd">
    <tripinfo id="rail1" depart="0.00" departLane="gneE0_0" departPos="135.10" departSpeed="0.00" departDelay="0.00" arrival="156.00" arrivalLane="gneE3_0" arrivalPos="171.44" arrivalSpeed="3.86" duration="156.00" routeLength="567.45" waitSteps="0" timeLoss="8.36" rerouteNo="0" devices="tripinfo_rail1" vType="rail" vaporized=""/>
</tripinfos>
