<?xml version="1.0" encoding="UTF-8"?>

<!-- generated on 05/10/14 14:09:41 by SUMO sumo Version dev-SVN-r15687
<?xml version="1.0" encoding="UTF-8"?>

<configuration xmlns:xsi="http://www.w3.org/2001/XMLSchema-instance" xsi:noNamespaceSchemaLocation="http://sumo.dlr.de/xsd/sumoConfiguration.xsd">

    <input>
        <net-file value="net.net.xml"/>
        <additional-files value="input_routes.rou.xml"/>
    </input>

    <output>
        <netstate-dump value="rawdump.xml"/>
    </output>

    <time>
        <begin value="0"/>
    </time>

    <report>
        <xml-validation value="never"/>
        <no-duration-log value="true"/>
        <no-step-log value="true"/>
    </report>

</configuration>
-->

<netstate xmlns:xsi="http://www.w3.org/2001/XMLSchema-instance" xsi:noNamespaceSchemaLocation="http://sumo.dlr.de/xsd/netstate_file.xsd">
    <timestep time="0.00">
        <edge id="2fi">
            <lane id="2fi_0">
                <vehicle id="horizontal" pos="3.10" speed="0.00"/>
            </lane>
        </edge>
    </timestep>
    <timestep time="1.00">
        <edge id="2fi">
            <lane id="2fi_0">
                <vehicle id="horizontal" pos="3.90" speed="0.80"/>
            </lane>
        </edge>
    </timestep>
    <timestep time="2.00">
        <edge id="2fi">
            <lane id="2fi_0">
                <vehicle id="horizontal" pos="5.50" speed="1.60"/>
            </lane>
        </edge>
    </timestep>
    <timestep time="3.00">
        <edge id="2fi">
            <lane id="2fi_0">
                <vehicle id="horizontal" pos="7.90" speed="2.40"/>
            </lane>
        </edge>
    </timestep>
    <timestep time="4.00">
        <edge id="2fi">
            <lane id="2fi_0">
                <vehicle id="horizontal" pos="11.10" speed="3.20"/>
            </lane>
        </edge>
    </timestep>
    <timestep time="5.00">
        <edge id="2fi">
            <lane id="2fi_0">
                <vehicle id="horizontal" pos="15.10" speed="4.00"/>
            </lane>
        </edge>
    </timestep>
    <timestep time="6.00">
        <edge id="2fi">
            <lane id="2fi_0">
                <vehicle id="horizontal" pos="19.90" speed="4.80"/>
            </lane>
        </edge>
    </timestep>
    <timestep time="7.00">
        <edge id="2fi">
            <lane id="2fi_0">
                <vehicle id="horizontal" pos="25.50" speed="5.60"/>
            </lane>
        </edge>
    </timestep>
    <timestep time="8.00">
        <edge id="2fi">
            <lane id="2fi_0">
                <vehicle id="horizontal" pos="31.90" speed="6.40"/>
            </lane>
        </edge>
    </timestep>
    <timestep time="9.00">
        <edge id="2fi">
            <lane id="2fi_0">
                <vehicle id="horizontal" pos="39.10" speed="7.20"/>
            </lane>
        </edge>
    </timestep>
    <timestep time="10.00">
        <edge id="2fi">
            <lane id="2fi_0">
                <vehicle id="horizontal" pos="47.10" speed="8.00"/>
            </lane>
        </edge>
    </timestep>
    <timestep time="11.00">
        <edge id="2fi">
            <lane id="2fi_0">
                <vehicle id="horizontal" pos="55.90" speed="8.80"/>
            </lane>
        </edge>
    </timestep>
    <timestep time="12.00">
        <edge id="2fi">
            <lane id="2fi_0">
                <vehicle id="horizontal" pos="65.50" speed="9.60"/>
            </lane>
        </edge>
    </timestep>
    <timestep time="13.00">
        <edge id="2fi">
            <lane id="2fi_0">
                <vehicle id="horizontal" pos="75.90" speed="10.40"/>
            </lane>
        </edge>
    </timestep>
    <timestep time="14.00">
        <edge id="2fi">
            <lane id="2fi_0">
                <vehicle id="horizontal" pos="87.01" speed="11.11"/>
            </lane>
        </edge>
    </timestep>
    <timestep time="15.00">
        <edge id="2fi">
            <lane id="2fi_0">
                <vehicle id="horizontal" pos="98.12" speed="11.11"/>
            </lane>
        </edge>
    </timestep>
    <timestep time="16.00">
        <edge id="2fi">
            <lane id="2fi_0">
                <vehicle id="horizontal" pos="109.23" speed="11.11"/>
            </lane>
        </edge>
    </timestep>
    <timestep time="17.00">
        <edge id="2fi">
            <lane id="2fi_0">
                <vehicle id="horizontal" pos="120.34" speed="11.11"/>
            </lane>
        </edge>
    </timestep>
    <timestep time="18.00">
        <edge id="2fi">
            <lane id="2fi_0">
                <vehicle id="horizontal" pos="131.45" speed="11.11"/>
            </lane>
        </edge>
    </timestep>
    <timestep time="19.00">
        <edge id="2fi">
            <lane id="2fi_0">
                <vehicle id="horizontal" pos="142.56" speed="11.11"/>
            </lane>
        </edge>
    </timestep>
    <timestep time="20.00">
        <edge id="2fi">
            <lane id="2fi_0">
                <vehicle id="horizontal" pos="153.67" speed="11.11"/>
            </lane>
        </edge>
    </timestep>
    <timestep time="21.00">
        <edge id="2fi">
            <lane id="2fi_0">
                <vehicle id="horizontal" pos="164.78" speed="11.11"/>
            </lane>
        </edge>
    </timestep>
    <timestep time="22.00">
        <edge id="2fi">
            <lane id="2fi_0">
                <vehicle id="horizontal" pos="175.89" speed="11.11"/>
            </lane>
        </edge>
    </timestep>
    <timestep time="23.00">
        <edge id="2fi">
            <lane id="2fi_0">
                <vehicle id="horizontal" pos="187.00" speed="11.11"/>
            </lane>
        </edge>
    </timestep>
    <timestep time="24.00">
        <edge id="2fi">
            <lane id="2fi_0">
                <vehicle id="horizontal" pos="198.11" speed="11.11"/>
            </lane>
        </edge>
    </timestep>
    <timestep time="25.00">
        <edge id="2fi">
            <lane id="2fi_0">
                <vehicle id="horizontal" pos="209.22" speed="11.11"/>
            </lane>
        </edge>
    </timestep>
    <timestep time="26.00">
        <edge id="2fi">
            <lane id="2fi_0">
                <vehicle id="horizontal" pos="220.33" speed="11.11"/>
            </lane>
        </edge>
    </timestep>
    <timestep time="27.00">
        <edge id="2fi">
            <lane id="2fi_0">
                <vehicle id="horizontal" pos="231.44" speed="11.11"/>
            </lane>
        </edge>
    </timestep>
    <timestep time="28.00">
        <edge id="2fi">
            <lane id="2fi_0">
                <vehicle id="horizontal" pos="242.55" speed="11.11"/>
            </lane>
        </edge>
    </timestep>
    <timestep time="29.00">
        <edge id="2si">
            <lane id="2si_0"/>
            <lane id="2si_1">
                <vehicle id="horizontal" pos="5.16" speed="11.11"/>
            </lane>
            <lane id="2si_2"/>
        </edge>
    </timestep>
    <timestep time="30.00">
        <edge id="2si">
            <lane id="2si_0"/>
            <lane id="2si_1">
                <vehicle id="horizontal" pos="17.07" speed="11.91"/>
            </lane>
            <lane id="2si_2"/>
        </edge>
    </timestep>
    <timestep time="31.00">
        <edge id="2si">
            <lane id="2si_0"/>
            <lane id="2si_1">
                <vehicle id="horizontal" pos="29.78" speed="12.71"/>
            </lane>
            <lane id="2si_2"/>
        </edge>
    </timestep>
    <timestep time="32.00">
        <edge id="2si">
            <lane id="2si_0"/>
            <lane id="2si_1">
                <vehicle id="horizontal" pos="43.29" speed="13.51"/>
            </lane>
            <lane id="2si_2"/>
        </edge>
    </timestep>
    <timestep time="33.00">
        <edge id="2si">
            <lane id="2si_0"/>
            <lane id="2si_1">
                <vehicle id="horizontal" pos="57.18" speed="13.89"/>
            </lane>
            <lane id="2si_2"/>
        </edge>
    </timestep>
    <timestep time="34.00">
        <edge id="2si">
            <lane id="2si_0"/>
            <lane id="2si_1">
                <vehicle id="horizontal" pos="71.07" speed="13.89"/>
            </lane>
            <lane id="2si_2"/>
        </edge>
    </timestep>
    <timestep time="35.00">
        <edge id="2si">
            <lane id="2si_0"/>
            <lane id="2si_1">
                <vehicle id="horizontal" pos="84.96" speed="13.89"/>
            </lane>
            <lane id="2si_2"/>
        </edge>
    </timestep>
    <timestep time="36.00">
        <edge id="2si">
            <lane id="2si_0"/>
            <lane id="2si_1">
                <vehicle id="horizontal" pos="98.85" speed="13.89"/>
            </lane>
            <lane id="2si_2"/>
        </edge>
    </timestep>
    <timestep time="37.00">
        <edge id="2si">
            <lane id="2si_0"/>
            <lane id="2si_1">
                <vehicle id="horizontal" pos="112.74" speed="13.89"/>
            </lane>
            <lane id="2si_2"/>
        </edge>
    </timestep>
    <timestep time="38.00">
        <edge id="2si">
            <lane id="2si_0"/>
            <lane id="2si_1">
                <vehicle id="horizontal" pos="126.63" speed="13.89"/>
            </lane>
            <lane id="2si_2"/>
        </edge>
    </timestep>
    <timestep time="39.00">
        <edge id="2si">
            <lane id="2si_0"/>
            <lane id="2si_1">
                <vehicle id="horizontal" pos="140.52" speed="13.89"/>
            </lane>
            <lane id="2si_2"/>
        </edge>
    </timestep>
    <timestep time="40.00">
        <edge id="2si">
            <lane id="2si_0"/>
            <lane id="2si_1">
                <vehicle id="horizontal" pos="154.41" speed="13.89"/>
            </lane>
            <lane id="2si_2"/>
        </edge>
    </timestep>
    <timestep time="41.00">
        <edge id="2si">
            <lane id="2si_0"/>
            <lane id="2si_1">
                <vehicle id="horizontal" pos="168.30" speed="13.89"/>
            </lane>
            <lane id="2si_2"/>
        </edge>
    </timestep>
    <timestep time="42.00">
        <edge id="2si">
            <lane id="2si_0"/>
            <lane id="2si_1">
                <vehicle id="horizontal" pos="182.19" speed="13.89"/>
            </lane>
            <lane id="2si_2"/>
        </edge>
    </timestep>
    <timestep time="43.00">
        <edge id="2si">
            <lane id="2si_0"/>
            <lane id="2si_1">
                <vehicle id="horizontal" pos="196.08" speed="13.89"/>
            </lane>
            <lane id="2si_2"/>
        </edge>
    </timestep>
    <timestep time="44.00">
        <edge id="2si">
            <lane id="2si_0"/>
            <lane id="2si_1">
                <vehicle id="horizontal" pos="209.97" speed="13.89"/>
            </lane>
            <lane id="2si_2"/>
        </edge>
    </timestep>
    <timestep time="45.00">
        <edge id="2si">
            <lane id="2si_0"/>
            <lane id="2si_1">
                <vehicle id="horizontal" pos="223.86" speed="13.89"/>
            </lane>
            <lane id="2si_2"/>
        </edge>
    </timestep>
    <timestep time="46.00">
        <edge id="2si">
            <lane id="2si_0"/>
            <lane id="2si_1">
                <vehicle id="horizontal" pos="237.15" speed="13.29"/>
            </lane>
            <lane id="2si_2"/>
        </edge>
    </timestep>
    <timestep time="47.00">
        <edge id="1o">
            <lane id="1o_0">
                <vehicle id="horizontal" pos="11.11" speed="11.11"/>
            </lane>
        </edge>
    </timestep>
    <timestep time="48.00">
        <edge id="1o">
            <lane id="1o_0">
                <vehicle id="horizontal" pos="22.22" speed="11.11"/>
            </lane>
        </edge>
    </timestep>
    <timestep time="49.00">
        <edge id="1o">
            <lane id="1o_0">
                <vehicle id="horizontal" pos="33.33" speed="11.11"/>
            </lane>
        </edge>
    </timestep>
    <timestep time="50.00">
        <edge id="1o">
            <lane id="1o_0">
                <vehicle id="horizontal" pos="44.44" speed="11.11"/>
            </lane>
        </edge>
    </timestep>
    <timestep time="51.00">
        <edge id="1o">
            <lane id="1o_0">
                <vehicle id="horizontal" pos="55.55" speed="11.11"/>
            </lane>
        </edge>
    </timestep>
    <timestep time="52.00">
        <edge id="1o">
            <lane id="1o_0">
                <vehicle id="horizontal" pos="66.66" speed="11.11"/>
            </lane>
        </edge>
    </timestep>
    <timestep time="53.00">
        <edge id="1o">
            <lane id="1o_0">
                <vehicle id="horizontal" pos="77.77" speed="11.11"/>
            </lane>
        </edge>
    </timestep>
    <timestep time="54.00">
        <edge id="1o">
            <lane id="1o_0">
                <vehicle id="horizontal" pos="88.88" speed="11.11"/>
            </lane>
        </edge>
    </timestep>
    <timestep time="55.00">
        <edge id="1o">
            <lane id="1o_0">
                <vehicle id="horizontal" pos="99.99" speed="11.11"/>
            </lane>
        </edge>
    </timestep>
    <timestep time="56.00">
        <edge id="1o">
            <lane id="1o_0">
                <vehicle id="horizontal" pos="111.10" speed="11.11"/>
            </lane>
        </edge>
    </timestep>
    <timestep time="57.00">
        <edge id="1o">
            <lane id="1o_0">
                <vehicle id="horizontal" pos="122.21" speed="11.11"/>
            </lane>
        </edge>
    </timestep>
    <timestep time="58.00">
        <edge id="1o">
            <lane id="1o_0">
                <vehicle id="horizontal" pos="133.32" speed="11.11"/>
            </lane>
        </edge>
    </timestep>
    <timestep time="59.00">
        <edge id="1o">
            <lane id="1o_0">
                <vehicle id="horizontal" pos="144.43" speed="11.11"/>
            </lane>
        </edge>
    </timestep>
    <timestep time="60.00">
        <edge id="1o">
            <lane id="1o_0">
                <vehicle id="horizontal" pos="155.54" speed="11.11"/>
            </lane>
        </edge>
    </timestep>
    <timestep time="61.00">
        <edge id="1o">
            <lane id="1o_0">
                <vehicle id="horizontal" pos="166.65" speed="11.11"/>
            </lane>
        </edge>
    </timestep>
    <timestep time="62.00">
        <edge id="1o">
            <lane id="1o_0">
                <vehicle id="horizontal" pos="177.76" speed="11.11"/>
            </lane>
        </edge>
    </timestep>
    <timestep time="63.00">
        <edge id="1o">
            <lane id="1o_0">
                <vehicle id="horizontal" pos="188.87" speed="11.11"/>
            </lane>
        </edge>
    </timestep>
    <timestep time="64.00">
        <edge id="1o">
            <lane id="1o_0">
                <vehicle id="horizontal" pos="199.98" speed="11.11"/>
            </lane>
        </edge>
    </timestep>
    <timestep time="65.00">
        <edge id="1o">
            <lane id="1o_0">
                <vehicle id="horizontal" pos="211.09" speed="11.11"/>
            </lane>
        </edge>
    </timestep>
    <timestep time="66.00">
        <edge id="1o">
            <lane id="1o_0">
                <vehicle id="horizontal" pos="222.20" speed="11.11"/>
            </lane>
        </edge>
    </timestep>
    <timestep time="67.00">
        <edge id="1o">
            <lane id="1o_0">
                <vehicle id="horizontal" pos="233.31" speed="11.11"/>
            </lane>
        </edge>
    </timestep>
    <timestep time="68.00">
        <edge id="1o">
            <lane id="1o_0">
                <vehicle id="horizontal" pos="244.42" speed="11.11"/>
            </lane>
        </edge>
    </timestep>
    <timestep time="69.00">
        <edge id="1o">
            <lane id="1o_0">
                <vehicle id="horizontal" pos="255.53" speed="11.11"/>
            </lane>
        </edge>
    </timestep>
    <timestep time="70.00">
        <edge id="1o">
            <lane id="1o_0">
                <vehicle id="horizontal" pos="266.64" speed="11.11"/>
            </lane>
        </edge>
    </timestep>
    <timestep time="71.00">
        <edge id="1o">
            <lane id="1o_0">
                <vehicle id="horizontal" pos="277.75" speed="11.11"/>
            </lane>
        </edge>
    </timestep>
    <timestep time="72.00">
        <edge id="1o">
            <lane id="1o_0">
                <vehicle id="horizontal" pos="288.86" speed="11.11"/>
            </lane>
        </edge>
    </timestep>
    <timestep time="73.00">
        <edge id="1o">
            <lane id="1o_0">
                <vehicle id="horizontal" pos="299.97" speed="11.11"/>
            </lane>
        </edge>
    </timestep>
    <timestep time="74.00">
        <edge id="1o">
            <lane id="1o_0">
                <vehicle id="horizontal" pos="311.08" speed="11.11"/>
            </lane>
        </edge>
    </timestep>
    <timestep time="75.00">
        <edge id="1o">
            <lane id="1o_0">
                <vehicle id="horizontal" pos="322.19" speed="11.11"/>
            </lane>
        </edge>
    </timestep>
    <timestep time="76.00">
        <edge id="1o">
            <lane id="1o_0">
                <vehicle id="horizontal" pos="333.30" speed="11.11"/>
            </lane>
        </edge>
    </timestep>
    <timestep time="77.00">
        <edge id="1o">
            <lane id="1o_0">
                <vehicle id="horizontal" pos="344.41" speed="11.11"/>
            </lane>
        </edge>
    </timestep>
    <timestep time="78.00">
        <edge id="1o">
            <lane id="1o_0">
                <vehicle id="horizontal" pos="355.52" speed="11.11"/>
            </lane>
        </edge>
    </timestep>
    <timestep time="79.00">
        <edge id="1o">
            <lane id="1o_0">
                <vehicle id="horizontal" pos="366.63" speed="11.11"/>
            </lane>
        </edge>
    </timestep>
    <timestep time="80.00">
        <edge id="1o">
            <lane id="1o_0">
                <vehicle id="horizontal" pos="377.74" speed="11.11"/>
            </lane>
        </edge>
    </timestep>
    <timestep time="81.00">
        <edge id="1o">
            <lane id="1o_0">
                <vehicle id="horizontal" pos="388.85" speed="11.11"/>
            </lane>
        </edge>
    </timestep>
    <timestep time="82.00">
        <edge id="1o">
            <lane id="1o_0">
                <vehicle id="horizontal" pos="399.96" speed="11.11"/>
            </lane>
        </edge>
    </timestep>
    <timestep time="83.00">
        <edge id="1o">
            <lane id="1o_0">
                <vehicle id="horizontal" pos="411.07" speed="11.11"/>
            </lane>
        </edge>
    </timestep>
    <timestep time="84.00">
        <edge id="1o">
            <lane id="1o_0">
                <vehicle id="horizontal" pos="422.18" speed="11.11"/>
            </lane>
        </edge>
    </timestep>
    <timestep time="85.00">
        <edge id="1o">
            <lane id="1o_0">
                <vehicle id="horizontal" pos="433.29" speed="11.11"/>
            </lane>
        </edge>
    </timestep>
    <timestep time="86.00">
        <edge id="1o">
            <lane id="1o_0">
                <vehicle id="horizontal" pos="444.40" speed="11.11"/>
            </lane>
        </edge>
    </timestep>
    <timestep time="87.00">
        <edge id="1o">
            <lane id="1o_0">
                <vehicle id="horizontal" pos="455.51" speed="11.11"/>
            </lane>
        </edge>
    </timestep>
    <timestep time="88.00">
        <edge id="1o">
            <lane id="1o_0">
                <vehicle id="horizontal" pos="466.62" speed="11.11"/>
            </lane>
        </edge>
    </timestep>
    <timestep time="89.00">
        <edge id="1o">
            <lane id="1o_0">
                <vehicle id="horizontal" pos="477.73" speed="11.11"/>
            </lane>
        </edge>
    </timestep>
    <timestep time="90.00">
        <edge id="1fi">
            <lane id="1fi_0">
                <vehicle id="horizontal" pos="0.19" speed="11.11"/>
            </lane>
        </edge>
    </timestep>
    <timestep time="91.00">
        <edge id="1fi">
            <lane id="1fi_0">
                <vehicle id="horizontal" pos="11.30" speed="11.11"/>
            </lane>
        </edge>
    </timestep>
    <timestep time="92.00">
        <edge id="1fi">
            <lane id="1fi_0">
                <vehicle id="horizontal" pos="22.41" speed="11.11"/>
            </lane>
        </edge>
    </timestep>
    <timestep time="93.00">
        <edge id="1fi">
            <lane id="1fi_0">
                <vehicle id="horizontal" pos="33.52" speed="11.11"/>
            </lane>
        </edge>
    </timestep>
    <timestep time="94.00">
        <edge id="1fi">
            <lane id="1fi_0">
                <vehicle id="horizontal" pos="44.63" speed="11.11"/>
            </lane>
        </edge>
    </timestep>
    <timestep time="95.00">
        <edge id="1fi">
            <lane id="1fi_0">
                <vehicle id="horizontal" pos="55.74" speed="11.11"/>
            </lane>
        </edge>
    </timestep>
    <timestep time="96.00">
        <edge id="1fi">
            <lane id="1fi_0">
                <vehicle id="horizontal" pos="66.85" speed="11.11"/>
            </lane>
        </edge>
    </timestep>
    <timestep time="97.00">
        <edge id="1fi">
            <lane id="1fi_0">
                <vehicle id="horizontal" pos="77.96" speed="11.11"/>
            </lane>
        </edge>
    </timestep>
    <timestep time="98.00">
        <edge id="1fi">
            <lane id="1fi_0">
                <vehicle id="horizontal" pos="89.07" speed="11.11"/>
            </lane>
        </edge>
    </timestep>
    <timestep time="99.00">
        <edge id="1fi">
            <lane id="1fi_0">
                <vehicle id="horizontal" pos="100.18" speed="11.11"/>
            </lane>
        </edge>
    </timestep>
    <timestep time="100.00">
        <edge id="1fi">
            <lane id="1fi_0">
                <vehicle id="horizontal" pos="111.29" speed="11.11"/>
            </lane>
        </edge>
    </timestep>
    <timestep time="101.00">
        <edge id="1fi">
            <lane id="1fi_0">
                <vehicle id="horizontal" pos="122.40" speed="11.11"/>
            </lane>
        </edge>
    </timestep>
    <timestep time="102.00">
        <edge id="1fi">
            <lane id="1fi_0">
                <vehicle id="horizontal" pos="133.51" speed="11.11"/>
            </lane>
        </edge>
    </timestep>
    <timestep time="103.00">
        <edge id="1fi">
            <lane id="1fi_0">
                <vehicle id="horizontal" pos="144.62" speed="11.11"/>
            </lane>
        </edge>
    </timestep>
    <timestep time="104.00">
        <edge id="1fi">
            <lane id="1fi_0">
                <vehicle id="horizontal" pos="155.73" speed="11.11"/>
            </lane>
        </edge>
    </timestep>
    <timestep time="105.00">
        <edge id="1fi">
            <lane id="1fi_0">
                <vehicle id="horizontal" pos="166.84" speed="11.11"/>
            </lane>
        </edge>
    </timestep>
    <timestep time="106.00">
        <edge id="1fi">
            <lane id="1fi_0">
                <vehicle id="horizontal" pos="177.95" speed="11.11"/>
            </lane>
        </edge>
    </timestep>
    <timestep time="107.00">
        <edge id="1fi">
            <lane id="1fi_0">
                <vehicle id="horizontal" pos="189.06" speed="11.11"/>
            </lane>
        </edge>
    </timestep>
    <timestep time="108.00">
        <edge id="1fi">
            <lane id="1fi_0">
                <vehicle id="horizontal" pos="200.17" speed="11.11"/>
            </lane>
        </edge>
    </timestep>
    <timestep time="109.00">
        <edge id="1fi">
            <lane id="1fi_0">
                <vehicle id="horizontal" pos="211.28" speed="11.11"/>
            </lane>
        </edge>
    </timestep>
    <timestep time="110.00">
        <edge id="1fi">
            <lane id="1fi_0">
                <vehicle id="horizontal" pos="222.39" speed="11.11"/>
            </lane>
        </edge>
    </timestep>
    <timestep time="111.00">
        <edge id="1fi">
            <lane id="1fi_0">
                <vehicle id="horizontal" pos="233.50" speed="11.11"/>
            </lane>
        </edge>
    </timestep>
    <timestep time="112.00">
        <edge id="1fi">
            <lane id="1fi_0">
                <vehicle id="horizontal" pos="244.61" speed="11.11"/>
            </lane>
        </edge>
    </timestep>
    <timestep time="113.00">
        <edge id="1si">
            <lane id="1si_0"/>
            <lane id="1si_1">
                <vehicle id="horizontal" pos="7.22" speed="11.11"/>
            </lane>
            <lane id="1si_2"/>
        </edge>
    </timestep>
    <timestep time="114.00">
        <edge id="1si">
            <lane id="1si_0"/>
            <lane id="1si_1">
                <vehicle id="horizontal" pos="19.13" speed="11.91"/>
            </lane>
            <lane id="1si_2"/>
        </edge>
    </timestep>
    <timestep time="115.00">
        <edge id="1si">
            <lane id="1si_0"/>
            <lane id="1si_1">
                <vehicle id="horizontal" pos="31.84" speed="12.71"/>
            </lane>
            <lane id="1si_2"/>
        </edge>
    </timestep>
    <timestep time="116.00">
        <edge id="1si">
            <lane id="1si_0"/>
            <lane id="1si_1">
                <vehicle id="horizontal" pos="45.35" speed="13.51"/>
            </lane>
            <lane id="1si_2"/>
        </edge>
    </timestep>
    <timestep time="117.00">
        <edge id="1si">
            <lane id="1si_0"/>
            <lane id="1si_1">
                <vehicle id="horizontal" pos="59.24" speed="13.89"/>
            </lane>
            <lane id="1si_2"/>
        </edge>
    </timestep>
    <timestep time="118.00">
        <edge id="1si">
            <lane id="1si_0"/>
            <lane id="1si_1">
                <vehicle id="horizontal" pos="73.13" speed="13.89"/>
            </lane>
            <lane id="1si_2"/>
        </edge>
    </timestep>
    <timestep time="119.00">
        <edge id="1si">
            <lane id="1si_0"/>
            <lane id="1si_1">
                <vehicle id="horizontal" pos="87.02" speed="13.89"/>
            </lane>
            <lane id="1si_2"/>
        </edge>
    </timestep>
    <timestep time="120.00">
        <edge id="1si">
            <lane id="1si_0"/>
            <lane id="1si_1">
                <vehicle id="horizontal" pos="100.91" speed="13.89"/>
            </lane>
            <lane id="1si_2"/>
        </edge>
    </timestep>
    <timestep time="121.00">
        <edge id="1si">
            <lane id="1si_0"/>
            <lane id="1si_1">
                <vehicle id="horizontal" pos="114.80" speed="13.89"/>
            </lane>
            <lane id="1si_2"/>
        </edge>
    </timestep>
    <timestep time="122.00">
        <edge id="1si">
            <lane id="1si_0"/>
            <lane id="1si_1">
                <vehicle id="horizontal" pos="128.69" speed="13.89"/>
            </lane>
            <lane id="1si_2"/>
        </edge>
    </timestep>
    <timestep time="123.00">
        <edge id="1si">
            <lane id="1si_0"/>
            <lane id="1si_1">
                <vehicle id="horizontal" pos="142.58" speed="13.89"/>
            </lane>
            <lane id="1si_2"/>
        </edge>
    </timestep>
    <timestep time="124.00">
        <edge id="1si">
            <lane id="1si_0"/>
            <lane id="1si_1">
                <vehicle id="horizontal" pos="156.47" speed="13.89"/>
            </lane>
            <lane id="1si_2"/>
        </edge>
    </timestep>
    <timestep time="125.00">
        <edge id="1si">
            <lane id="1si_0"/>
            <lane id="1si_1">
                <vehicle id="horizontal" pos="170.36" speed="13.89"/>
            </lane>
            <lane id="1si_2"/>
        </edge>
    </timestep>
    <timestep time="126.00">
        <edge id="1si">
            <lane id="1si_0"/>
            <lane id="1si_1">
                <vehicle id="horizontal" pos="184.25" speed="13.89"/>
            </lane>
            <lane id="1si_2"/>
        </edge>
    </timestep>
    <timestep time="127.00">
        <edge id="1si">
            <lane id="1si_0"/>
            <lane id="1si_1">
                <vehicle id="horizontal" pos="198.14" speed="13.89"/>
            </lane>
            <lane id="1si_2"/>
        </edge>
    </timestep>
    <timestep time="128.00">
        <edge id="1si">
            <lane id="1si_0"/>
            <lane id="1si_1">
                <vehicle id="horizontal" pos="212.03" speed="13.89"/>
            </lane>
            <lane id="1si_2"/>
        </edge>
    </timestep>
    <timestep time="129.00">
        <edge id="1si">
            <lane id="1si_0"/>
            <lane id="1si_1">
                <vehicle id="horizontal" pos="224.57" speed="12.54"/>
            </lane>
            <lane id="1si_2"/>
        </edge>
    </timestep>
    <timestep time="130.00">
        <edge id="1si">
            <lane id="1si_0"/>
            <lane id="1si_1">
                <vehicle id="horizontal" pos="232.61" speed="8.04"/>
            </lane>
            <lane id="1si_2"/>
        </edge>
    </timestep>
    <timestep time="131.00">
        <edge id="1si">
            <lane id="1si_0"/>
            <lane id="1si_1">
                <vehicle id="horizontal" pos="236.15" speed="3.54"/>
            </lane>
            <lane id="1si_2"/>
        </edge>
    </timestep>
    <timestep time="132.00">
        <edge id="1si">