<?xml version="1.0" encoding="UTF-8"?>

<!-- generated on 07/10/14 10:53:25 by SUMO sumo Version dev-SVN-r16743
<?xml version="1.0" encoding="UTF-8"?>

<configuration xmlns:xsi="http://www.w3.org/2001/XMLSchema-instance" xsi:noNamespaceSchemaLocation="http://sumo-sim.org/xsd/sumoConfiguration.xsd">

    <input>
        <net-file value="net.net.xml"/>
        <route-files value="input_routes.rou.xml"/>
        <additional-files value="input_additional.add.xml"/>
    </input>

    <time>
        <begin value="0"/>
        <end value="1000"/>
    </time>

    <report>
        <xml-validation value="never"/>
        <no-duration-log value="true"/>
        <no-step-log value="true"/>
    </report>

</configuration>
-->

<meandata xmlns:xsi="http://www.w3.org/2001/XMLSchema-instance" xsi:noNamespaceSchemaLocation="http://sumo-sim.org/xsd/meandata_file.xsd">
    <interval begin="0.00" end="60.00" id="dump_60">
        <edge id="1fi">
            <lane id="1fi_0" sampledSeconds="0.00" departed="0" arrived="0" entered="0" left="0" laneChangedFrom="0" laneChangedTo="0"/>
        </edge>
        <edge id="1o">
            <lane id="1o_0" sampledSeconds="0.00" departed="0" arrived="0" entered="0" left="0" laneChangedFrom="0" laneChangedTo="0"/>
        </edge>
        <edge id="1si">
            <lane id="1si_0" sampledSeconds="0.00" departed="0" arrived="0" entered="0" left="0" laneChangedFrom="0" laneChangedTo="0"/>
            <lane id="1si_1" sampledSeconds="0.00" departed="0" arrived="0" entered="0" left="0" laneChangedFrom="0" laneChangedTo="0"/>
            <lane id="1si_2" sampledSeconds="0.00" departed="0" arrived="0" entered="0" left="0" laneChangedFrom="0" laneChangedTo="0"/>
        </edge>
        <edge id="2fi">
            <lane id="2fi_0" sampledSeconds="0.00" departed="0" arrived="0" entered="0" left="0" laneChangedFrom="0" laneChangedTo="0"/>
        </edge>
        <edge id="2o">
            <lane id="2o_0" sampledSeconds="0.00" departed="0" arrived="0" entered="0" left="0" laneChangedFrom="0" laneChangedTo="0"/>
        </edge>
        <edge id="2si">
            <lane id="2si_0" sampledSeconds="0.00" departed="0" arrived="0" entered="0" left="0" laneChangedFrom="0" laneChangedTo="0"/>
            <lane id="2si_1" sampledSeconds="0.00" departed="0" arrived="0" entered="0" left="0" laneChangedFrom="0" laneChangedTo="0"/>
            <lane id="2si_2" sampledSeconds="0.00" departed="0" arrived="0" entered="0" left="0" laneChangedFrom="0" laneChangedTo="0"/>
        </edge>
        <edge id="3fi">
            <lane id="3fi_0" sampledSeconds="0.00" departed="0" arrived="0" entered="0" left="0" laneChangedFrom="0" laneChangedTo="0"/>
        </edge>
        <edge id="3o">
            <lane id="3o_0" sampledSeconds="0.00" departed="0" arrived="0" entered="0" left="0" laneChangedFrom="0" laneChangedTo="0"/>
        </edge>
        <edge id="3si">
            <lane id="3si_0" sampledSeconds="0.00" departed="0" arrived="0" entered="0" left="0" laneChangedFrom="0" laneChangedTo="0"/>
            <lane id="3si_1" sampledSeconds="0.00" departed="0" arrived="0" entered="0" left="0" laneChangedFrom="0" laneChangedTo="0"/>
            <lane id="3si_2" sampledSeconds="0.00" departed="0" arrived="0" entered="0" left="0" laneChangedFrom="0" laneChangedTo="0"/>
        </edge>
        <edge id="4fi">
            <lane id="4fi_0" sampledSeconds="0.00" departed="0" arrived="0" entered="0" left="0" laneChangedFrom="0" laneChangedTo="0"/>
        </edge>
        <edge id="4o">
            <lane id="4o_0" sampledSeconds="0.00" departed="0" arrived="0" entered="0" left="0" laneChangedFrom="0" laneChangedTo="0"/>
        </edge>
        <edge id="4si">
            <lane id="4si_0" sampledSeconds="0.00" departed="0" arrived="0" entered="0" left="0" laneChangedFrom="0" laneChangedTo="0"/>
            <lane id="4si_1" sampledSeconds="0.00" departed="0" arrived="0" entered="0" left="0" laneChangedFrom="0" laneChangedTo="0"/>
            <lane id="4si_2" sampledSeconds="0.00" departed="0" arrived="0" entered="0" left="0" laneChangedFrom="0" laneChangedTo="0"/>
        </edge>
    </interval>
    <interval begin="60.00" end="120.00" id="dump_60">
        <edge id="1fi">
            <lane id="1fi_0" sampledSeconds="28.00" traveltime="27.97" overlapTraveltime="28.54" density="1.88" occupancy="0.94" waitingTime="0.00" speed="8.88" departed="2" arrived="0" entered="0" left="0" laneChangedFrom="0" laneChangedTo="0"/>
        </edge>
        <edge id="1o">
            <lane id="1o_0" sampledSeconds="0.00" departed="0" arrived="0" entered="0" left="0" laneChangedFrom="0" laneChangedTo="0"/>
        </edge>
        <edge id="1si">
            <lane id="1si_0" sampledSeconds="0.00" departed="0" arrived="0" entered="0" left="0" laneChangedFrom="0" laneChangedTo="0"/>
            <lane id="1si_1" sampledSeconds="0.00" departed="0" arrived="0" entered="0" left="0" laneChangedFrom="0" laneChangedTo="0"/>
            <lane id="1si_2" sampledSeconds="0.00" departed="0" arrived="0" entered="0" left="0" laneChangedFrom="0" laneChangedTo="0"/>
        </edge>
        <edge id="2fi">
            <lane id="2fi_0" sampledSeconds="28.00" traveltime="28.24" overlapTraveltime="28.81" density="1.88" occupancy="0.94" waitingTime="0.00" speed="8.80" departed="2" arrived="0" entered="0" left="0" laneChangedFrom="0" laneChangedTo="0"/>
        </edge>
        <edge id="2o">
            <lane id="2o_0" sampledSeconds="0.00" departed="0" arrived="0" entered="0" left="0" laneChangedFrom="0" laneChangedTo="0"/>
        </edge>
        <edge id="2si">
            <lane id="2si_0" sampledSeconds="0.00" departed="0" arrived="0" entered="0" left="0" laneChangedFrom="0" laneChangedTo="0"/>
            <lane id="2si_1" sampledSeconds="0.00" departed="0" arrived="0" entered="0" left="0" laneChangedFrom="0" laneChangedTo="0"/>
            <lane id="2si_2" sampledSeconds="0.00" departed="0" arrived="0" entered="0" left="0" laneChangedFrom="0" laneChangedTo="0"/>
        </edge>
        <edge id="3fi">
            <lane id="3fi_0" sampledSeconds="51.00" traveltime="28.91" overlapTraveltime="29.49" density="3.42" occupancy="1.71" waitingTime="0.00" speed="8.60" departed="4" arrived="0" entered="0" left="0" laneChangedFrom="0" laneChangedTo="0"/>
        </edge>
        <edge id="3o">
            <lane id="3o_0" sampledSeconds="0.00" departed="0" arrived="0" entered="0" left="0" laneChangedFrom="0" laneChangedTo="0"/>
        </edge>
        <edge id="3si">
            <lane id="3si_0" sampledSeconds="0.00" departed="0" arrived="0" entered="0" left="0" laneChangedFrom="0" laneChangedTo="0"/>
            <lane id="3si_1" sampledSeconds="0.00" departed="0" arrived="0" entered="0" left="0" laneChangedFrom="0" laneChangedTo="0"/>
            <lane id="3si_2" sampledSeconds="0.00" departed="0" arrived="0" entered="0" left="0" laneChangedFrom="0" laneChangedTo="0"/>
        </edge>
        <edge id="4fi">
            <lane id="4fi_0" sampledSeconds="0.00" departed="0" arrived="0" entered="0" left="0" laneChangedFrom="0" laneChangedTo="0"/>
        </edge>
        <edge id="4o">
            <lane id="4o_0" sampledSeconds="0.00" departed="0" arrived="0" entered="0" left="0" laneChangedFrom="0" laneChangedTo="0"/>
        </edge>
        <edge id="4si">
            <lane id="4si_0" sampledSeconds="0.00" departed="0" arrived="0" entered="0" left="0" laneChangedFrom="0" laneChangedTo="0"/>
            <lane id="4si_1" sampledSeconds="0.00" departed="0" arrived="0" entered="0" left="0" laneChangedFrom="0" laneChangedTo="0"/>
            <lane id="4si_2" sampledSeconds="0.00" departed="0" arrived="0" entered="0" left="0" laneChangedFrom="0" laneChangedTo="0"/>
        </edge>
    </interval>
    <interval begin="120.00" end="180.00" id="dump_60">
        <edge id="1fi">
            <lane id="1fi_0" sampledSeconds="156.01" traveltime="26.04" overlapTraveltime="26.50" density="10.46" occupancy="5.23" waitingTime="0.00" speed="9.56" departed="6" arrived="0" entered="0" left="6" laneChangedFrom="0" laneChangedTo="0"/>
        </edge>
        <edge id="1o">
            <lane id="1o_0" sampledSeconds="68.83" traveltime="46.81" overlapTraveltime="47.29" density="2.35" occupancy="1.17" waitingTime="0.00" speed="10.44" departed="0" arrived="0" entered="3" left="0" laneChangedFrom="0" laneChangedTo="0"/>
        </edge>
        <edge id="1si">
            <lane id="1si_0" sampledSeconds="0.00" departed="0" arrived="0" entered="0" left="0" laneChangedFrom="0" laneChangedTo="0"/>
            <lane id="1si_1" sampledSeconds="0.00" departed="0" arrived="0" entered="0" left="0" laneChangedFrom="0" laneChangedTo="0"/>
            <lane id="1si_2" sampledSeconds="94.25" traveltime="18.59" overlapTraveltime="19.31" density="6.62" occupancy="3.31" waitingTime="0.00" speed="12.54" departed="0" arrived="0" entered="6" left="4" laneChangedFrom="0" laneChangedTo="0"/>
        </edge>
        <edge id="2fi">
            <lane id="2fi_0" sampledSeconds="155.60" traveltime="26.09" overlapTraveltime="26.52" density="10.44" occupancy="5.22" waitingTime="0.00" speed="9.56" departed="6" arrived="0" entered="0" left="6" laneChangedFrom="0" laneChangedTo="0"/>
        </edge>
        <edge id="2o">
            <lane id="2o_0" sampledSeconds="0.00" departed="0" arrived="0" entered="0" left="0" laneChangedFrom="0" laneChangedTo="0"/>
        </edge>
        <edge id="2si">
            <lane id="2si_0" sampledSeconds="0.00" departed="0" arrived="0" entered="0" left="0" laneChangedFrom="0" laneChangedTo="0"/>
            <lane id="2si_1" sampledSeconds="94.84" traveltime="19.21" overlapTraveltime="19.63" density="6.67" occupancy="3.33" waitingTime="2.00" speed="12.34" departed="0" arrived="0" entered="6" left="3" laneChangedFrom="0" laneChangedTo="0"/>
            <lane id="2si_2" sampledSeconds="0.00" departed="0" arrived="0" entered="0" left="0" laneChangedFrom="0" laneChangedTo="0"/>
        </edge>
        <edge id="3fi">
            <lane id="3fi_0" sampledSeconds="311.03" traveltime="26.09" overlapTraveltime="26.53" density="20.86" occupancy="10.43" waitingTime="0.00" speed="9.56" departed="12" arrived="0" entered="0" left="12" laneChangedFrom="0" laneChangedTo="0"/>
        </edge>
        <edge id="3o">
            <lane id="3o_0" sampledSeconds="0.00" departed="0" arrived="0" entered="0" left="0" laneChangedFrom="0" laneChangedTo="0"/>
        </edge>
        <edge id="3si">
            <lane id="3si_0" sampledSeconds="168.77" traveltime="35.65" overlapTraveltime="36.40" density="11.86" occupancy="5.93" waitingTime="74.00" speed="6.65" departed="0" arrived="0" entered="6" left="0" laneChangedFrom="0" laneChangedTo="0"/>
            <lane id="3si_1" sampledSeconds="150.30" traveltime="34.27" overlapTraveltime="34.99" density="10.56" occupancy="5.28" waitingTime="62.00" speed="6.92" departed="0" arrived="0" entered="5" left="0" laneChangedFrom="0" laneChangedTo="0"/>
            <lane id="3si_2" sampledSeconds="0.00" departed="0" arrived="0" entered="0" left="0" laneChangedFrom="0" laneChangedTo="0"/>
        </edge>
        <edge id="4fi">
            <lane id="4fi_0" sampledSeconds="0.00" departed="0" arrived="0" entered="0" left="0" laneChangedFrom="0" laneChangedTo="0"/>
        </edge>
        <edge id="4o">
            <lane id="4o_0" sampledSeconds="66.99" traveltime="46.82" overlapTraveltime="47.30" density="2.28" occupancy="1.14" waitingTime="0.00" speed="10.44" departed="0" arrived="0" entered="4" left="0" laneChangedFrom="0" laneChangedTo="0"/>
        </edge>
        <edge id="4si">
            <lane id="4si_0" sampledSeconds="0.00" departed="0" arrived="0" entered="0" left="0" laneChangedFrom="0" laneChangedTo="0"/>
            <lane id="4si_1" sampledSeconds="0.00" departed="0" arrived="0" entered="0" left="0" laneChangedFrom="0" laneChangedTo="0"/>
            <lane id="4si_2" sampledSeconds="0.00" departed="0" arrived="0" entered="0" left="0" laneChangedFrom="0" laneChangedTo="0"/>
        </edge>
    </interval>
    <interval begin="180.00" end="240.00" id="dump_60">
        <edge id="1fi">
            <lane id="1fi_0" sampledSeconds="229.60" traveltime="25.46" overlapTraveltime="25.89" density="15.40" occupancy="7.70" waitingTime="0.00" speed="9.79" departed="6" arrived="0" entered="3" left="9" laneChangedFrom="0" laneChangedTo="0"/>
        </edge>
        <edge id="1o">
            <lane id="1o_0" sampledSeconds="105.72" traveltime="47.19" overlapTraveltime="47.88" density="3.61" occupancy="1.80" waitingTime="0.00" speed="10.31" departed="0" arrived="0" entered="6" left="3" laneChangedFrom="0" laneChangedTo="0"/>
        </edge>
        <edge id="1si">
            <lane id="1si_0" sampledSeconds="0.00" departed="0" arrived="0" entered="0" left="0" laneChangedFrom="0" laneChangedTo="0"/>
            <lane id="1si_1" sampledSeconds="30.36" traveltime="18.29" overlapTraveltime="18.69" density="2.13" occupancy="1.07" waitingTime="0.00" speed="12.95" departed="0" arrived="0" entered="3" left="1" laneChangedFrom="0" laneChangedTo="0"/>
            <lane id="1si_2" sampledSeconds="275.06" traveltime="-26302.72" overlapTraveltime="49.48" density="19.33" occupancy="9.67" waitingTime="133.00" speed="4.89" departed="0" arrived="0" entered="6" left="2" laneChangedFrom="0" laneChangedTo="0"/>
        </edge>
        <edge id="2fi">
            <lane id="2fi_0" sampledSeconds="174.45" traveltime="25.37" overlapTraveltime="25.84" density="11.70" occupancy="5.85" waitingTime="0.00" speed="9.81" departed="5" arrived="0" entered="5" left="6" laneChangedFrom="0" laneChangedTo="0"/>
        </edge>
        <edge id="2o">
            <lane id="2o_0" sampledSeconds="316.55" traveltime="46.96" overlapTraveltime="47.43" density="10.80" occupancy="5.40" waitingTime="0.00" speed="10.41" departed="0" arrived="0" entered="8" left="5" laneChangedFrom="0" laneChangedTo="0"/>
        </edge>
        <edge id="2si">
            <lane id="2si_0" sampledSeconds="0.00" departed="0" arrived="0" entered="0" left="0" laneChangedFrom="0" laneChangedTo="0"/>
            <lane id="2si_1" sampledSeconds="304.01" traveltime="49.73" overlapTraveltime="50.33" density="21.37" occupancy="10.68" waitingTime="156.00" speed="4.81" departed="0" arrived="0" entered="6" left="7" laneChangedFrom="0" laneChangedTo="0"/>
            <lane id="2si_2" sampledSeconds="0.00" departed="0" arrived="0" entered="0" left="0" laneChangedFrom="0" laneChangedTo="0"/>
        </edge>
        <edge id="3fi">
            <lane id="3fi_0" sampledSeconds="311.44" traveltime="26.11" overlapTraveltime="26.53" density="20.89" occupancy="10.44" waitingTime="0.00" speed="9.56" departed="12" arrived="0" entered="0" left="12" laneChangedFrom="0" laneChangedTo="0"/>
        </edge>
        <edge id="3o">
            <lane id="3o_0" sampledSeconds="0.00" departed="0" arrived="0" entered="0" left="0" laneChangedFrom="0" laneChangedTo="0"/>
        </edge>
        <edge id="3si">
            <lane id="3si_0" sampledSeconds="180.20" traveltime="29.02" overlapTraveltime="29.70" density="12.66" occupancy="6.33" waitingTime="45.00" speed="8.15" departed="0" arrived="0" entered="6" left="7" laneChangedFrom="0" laneChangedTo="0"/>
            <lane id="3si_1" sampledSeconds="169.99" traveltime="27.16" overlapTraveltime="27.90" density="11.95" occupancy="5.97" waitingTime="38.00" speed="8.68" departed="0" arrived="0" entered="7" left="7" laneChangedFrom="0" laneChangedTo="0"/>
            <lane id="3si_2" sampledSeconds="0.00" departed="0" arrived="0" entered="0" left="0" laneChangedFrom="0" laneChangedTo="0"/>
        </edge>
        <edge id="4fi">
            <lane id="4fi_0" sampledSeconds="108.05" traveltime="23.80" overlapTraveltime="24.27" density="7.25" occupancy="3.62" waitingTime="0.00" speed="10.45" departed="0" arrived="0" entered="8" left="2" laneChangedFrom="0" laneChangedTo="0"/>
        </edge>
        <edge id="4o">
            <lane id="4o_0" sampledSeconds="428.17" traveltime="46.79" overlapTraveltime="47.27" density="14.60" occupancy="7.30" waitingTime="0.00" speed="10.44" departed="0" arrived="0" entered="7" left="9" laneChangedFrom="0" laneChangedTo="0"/>
        </edge>
        <edge id="4si">
            <lane id="4si_0" sampledSeconds="0.00" departed="0" arrived="0" entered="0" left="0" laneChangedFrom="0" laneChangedTo="0"/>
            <lane id="4si_1" sampledSeconds="0.00" departed="0" arrived="0" entered="0" left="0" laneChangedFrom="0" laneChangedTo="0"/>
            <lane id="4si_2" sampledSeconds="31.23" traveltime="19.47" overlapTraveltime="19.88" density="2.19" occupancy="1.10" waitingTime="0.00" speed="12.18" departed="0" arrived="0" entered="2" left="0" laneChangedFrom="0" laneChangedTo="0"/>
        </edge>
    </interval>
    <interval begin="240.00" end="300.00" id="dump_60">
        <edge id="1fi">
            <lane id="1fi_0" sampledSeconds="261.60" traveltime="25.05" overlapTraveltime="25.52" density="17.55" occupancy="8.77" waitingTime="0.00" speed="9.93" departed="6" arrived="0" entered="8" left="6" laneChangedFrom="0" laneChangedTo="0"/>
        </edge>
        <edge id="1o">
            <lane id="1o_0" sampledSeconds="393.31" traveltime="47.20" overlapTraveltime="47.69" density="13.41" occupancy="6.71" waitingTime="0.00" speed="10.35" departed="0" arrived="0" entered="3" left="8" laneChangedFrom="0" laneChangedTo="0"/>
        </edge>
        <edge id="1si">
            <lane id="1si_0" sampledSeconds="0.00" departed="0" arrived="0" entered="0" left="0" laneChangedFrom="0" laneChangedTo="0"/>
            <lane id="1si_1" sampledSeconds="67.79" traveltime="49.60" overlapTraveltime="50.18" density="4.76" occupancy="2.38" waitingTime="40.00" speed="4.83" departed="0" arrived="0" entered="0" left="1" laneChangedFrom="0" laneChangedTo="0"/>
            <lane id="1si_2" sampledSeconds="236.87" traveltime="-685768.40" overlapTraveltime="37.99" density="16.65" occupancy="8.32" waitingTime="64.00" speed="6.37" departed="0" arrived="0" entered="6" left="7" laneChangedFrom="0" laneChangedTo="0"/>
        </edge>
        <edge id="2fi">
            <lane id="2fi_0" sampledSeconds="324.33" traveltime="24.99" overlapTraveltime="25.45" density="21.75" occupancy="10.88" waitingTime="0.00" speed="9.96" departed="7" arrived="0" entered="4" left="13" laneChangedFrom="0" laneChangedTo="0"/>
        </edge>
        <edge id="2o">
            <lane id="2o_0" sampledSeconds="282.31" traveltime="47.26" overlapTraveltime="47.74" density="9.63" occupancy="4.81" waitingTime="0.00" speed="10.34" departed="0" arrived="0" entered="11" left="4" laneChangedFrom="0" laneChangedTo="0"/>
        </edge>
        <edge id="2si">
            <lane id="2si_0" sampledSeconds="261.90" traveltime="41.53" overlapTraveltime="42.41" density="18.41" occupancy="9.20" waitingTime="121.00" speed="5.71" departed="0" arrived="0" entered="7" left="0" laneChangedFrom="0" laneChangedTo="0"/>
            <lane id="2si_1" sampledSeconds="165.51" traveltime="28.47" overlapTraveltime="29.00" density="11.63" occupancy="5.82" waitingTime="50.00" speed="8.35" departed="0" arrived="0" entered="6" left="2" laneChangedFrom="0" laneChangedTo="0"/>
            <lane id="2si_2" sampledSeconds="0.00" departed="0" arrived="0" entered="0" left="0" laneChangedFrom="0" laneChangedTo="0"/>
        </edge>
        <edge id="3fi">
            <lane id="3fi_0" sampledSeconds="311.70" traveltime="26.02" overlapTraveltime="26.46" density="20.91" occupancy="10.45" waitingTime="0.00" speed="9.58" departed="12" arrived="0" entered="0" left="12" laneChangedFrom="0" laneChangedTo="0"/>
        </edge>
        <edge id="3o">
            <lane id="3o_0" sampledSeconds="107.02" traveltime="47.13" overlapTraveltime="47.61" density="3.65" occupancy="1.83" waitingTime="0.00" speed="10.37" departed="0" arrived="0" entered="6" left="0" laneChangedFrom="0" laneChangedTo="0"/>
        </edge>
        <edge id="3si">
            <lane id="3si_0" sampledSeconds="299.05" traveltime="48.05" overlapTraveltime="48.39" density="21.02" occupancy="10.51" waitingTime="152.00" speed="5.00" departed="0" arrived="0" entered="6" left="9" laneChangedFrom="0" laneChangedTo="0"/>
            <lane id="3si_1" sampledSeconds="289.78" traveltime="46.84" overlapTraveltime="47.15" density="20.37" occupancy="10.18" waitingTime="140.00" speed="5.14" departed="0" arrived="0" entered="5" left="9" laneChangedFrom="0" laneChangedTo="0"/>
            <lane id="3si_2" sampledSeconds="0.00" departed="0" arrived="0" entered="0" left="0" laneChangedFrom="0" laneChangedTo="0"/>
        </edge>
        <edge id="4fi">
            <lane id="4fi_0" sampledSeconds="171.56" traveltime="23.79" overlapTraveltime="24.22" density="11.51" occupancy="5.75" waitingTime="0.00" speed="10.47" departed="0" arrived="0" entered="6" left="9" laneChangedFrom="0" laneChangedTo="0"/>
        </edge>
        <edge id="4o">
            <lane id="4o_0" sampledSeconds="541.63" traveltime="47.05" overlapTraveltime="47.53" density="18.47" occupancy="9.24" waitingTime="0.00" speed="10.39" departed="0" arrived="0" entered="17" left="5" laneChangedFrom="0" laneChangedTo="0"/>
        </edge>
        <edge id="4si">
            <lane id="4si_0" sampledSeconds="0.00" departed="0" arrived="0" entered="0" left="0" laneChangedFrom="0" laneChangedTo="0"/>
            <lane id="4si_1" sampledSeconds="129.04" traveltime="18.00" overlapTraveltime="18.43" density="9.07" occupancy="4.53" waitingTime="0.00" speed="13.14" departed="0" arrived="0" entered="7" left="7" laneChangedFrom="0" laneChangedTo="0"/>
            <lane id="4si_2" sampledSeconds="193.76" traveltime="-3268636178.48" overlapTraveltime="82.13" density="13.62" occupancy="6.81" waitingTime="112.00" speed="2.95" departed="0" arrived="0" entered="2" left="3" laneChangedFrom="0" laneChangedTo="0"/>
        </edge>
    </interval>
    <interval begin="300.00" end="360.00" id="dump_60">
        <edge id="1fi">
            <lane id="1fi_0" sampledSeconds="270.50" traveltime="25.39" overlapTraveltime="25.79" density="18.14" occupancy="9.07" waitingTime="0.00" speed="9.83" departed="6" arrived="0" entered="1" left="15" laneChangedFrom="0" laneChangedTo="0"/>
        </edge>
        <edge id="1o">
            <lane id="1o_0" sampledSeconds="282.73" traveltime="47.17" overlapTraveltime="47.69" density="9.64" occupancy="4.82" waitingTime="0.00" speed="10.35" departed="0" arrived="0" entered="9" left="1" laneChangedFrom="0" laneChangedTo="0"/>
        </edge>
        <edge id="1si">
            <lane id="1si_0" sampledSeconds="0.00" departed="0" arrived="0" entered="0" left="0" laneChangedFrom="0" laneChangedTo="0"/>
            <lane id="1si_1" sampledSeconds="196.70" traveltime="21.20" overlapTraveltime="21.86" density="13.82" occupancy="6.91" waitingTime="24.00" speed="11.08" departed="0" arrived="0" entered="9" left="9" laneChangedFrom="0" laneChangedTo="0"/>
            <lane id="1si_2" sampledSeconds="291.36" traveltime="-3211655428.88" overlapTraveltime="47.24" density="20.48" occupancy="10.24" waitingTime="105.00" speed="5.13" departed="0" arrived="0" entered="6" left="9" laneChangedFrom="0" laneChangedTo="0"/>
        </edge>
        <edge id="2fi">
            <lane id="2fi_0" sampledSeconds="396.68" traveltime="24.48" overlapTraveltime="24.94" density="26.61" occupancy="13.30" waitingTime="0.00" speed="10.17" departed="6" arrived="2" entered="13" left="12" laneChangedFrom="0" laneChangedTo="0"/>
        </edge>
        <edge id="2o">
            <lane id="2o_0" sampledSeconds="731.70" traveltime="47.07" overlapTraveltime="47.56" density="24.96" occupancy="12.48" waitingTime="0.00" speed="10.38" departed="0" arrived="0" entered="12" left="13" laneChangedFrom="0" laneChangedTo="0"/>
        </edge>
        <edge id="2si">
            <lane id="2si_0" sampledSeconds="228.59" traveltime="53.76" overlapTraveltime="54.08" density="16.07" occupancy="8.03" waitingTime="126.00" speed="4.48" departed="0" arrived="0" entered="8" left="7" laneChangedFrom="0" laneChangedTo="0"/>
            <lane id="2si_1" sampledSeconds="218.71" traveltime="40.10" overlapTraveltime="40.54" density="15.37" occupancy="7.69" waitingTime="88.00" speed="5.97" departed="0" arrived="0" entered="4" left="9" laneChangedFrom="0" laneChangedTo="0"/>
            <lane id="2si_2" sampledSeconds="0.00" departed="0" arrived="0" entered="0" left="0" laneChangedFrom="0" laneChangedTo="0"/>
        </edge>
        <edge id="3fi">
            <lane id="3fi_0" sampledSeconds="397.14" traveltime="25.30" overlapTraveltime="25.75" density="26.64" occupancy="13.32" waitingTime="0.00" speed="9.84" departed="11" arrived="5" entered="7" left="9" laneChangedFrom="0" laneChangedTo="0"/>
        </edge>
        <edge id="3o">
            <lane id="3o_0" sampledSeconds="223.85" traveltime="46.63" overlapTraveltime="47.10" density="7.63" occupancy="3.82" waitingTime="0.00" speed="10.48" departed="0" arrived="0" entered="1" left="7" laneChangedFrom="0" laneChangedTo="0"/>
        </edge>
        <edge id="3si">
            <lane id="3si_0" sampledSeconds="272.08" traveltime="59.12" overlapTraveltime="60.37" density="19.12" occupancy="9.56" waitingTime="171.00" speed="4.01" departed="0" arrived="0" entered="5" left="0" laneChangedFrom="0" laneChangedTo="0"/>
            <lane id="3si_1" sampledSeconds="260.19" traveltime="52.52" overlapTraveltime="53.63" density="18.29" occupancy="9.14" waitingTime="154.00" speed="4.52" departed="0" arrived="0" entered="5" left="0" laneChangedFrom="0" laneChangedTo="0"/>
            <lane id="3si_2" sampledSeconds="0.00" departed="0" arrived="0" entered="0" left="0" laneChangedFrom="0" laneChangedTo="0"/>
        </edge>
        <edge id="4fi">
            <lane id="4fi_0" sampledSeconds="411.11" traveltime="23.83" overlapTraveltime="24.28" density="27.57" occupancy="13.79" waitingTime="0.00" speed="10.44" departed="0" arrived="0" entered="15" left="16" laneChangedFrom="0" laneChangedTo="0"/>
        </edge>
        <edge id="4o">
            <lane id="4o_0" sampledSeconds="708.70" traveltime="47.16" overlapTraveltime="47.64" density="24.17" occupancy="12.09" waitingTime="0.00" speed="10.36" departed="0" arrived="0" entered="17" left="15" laneChangedFrom="0" laneChangedTo="0"/>
        </edge>
        <edge id="4si">
            <lane id="4si_0" sampledSeconds="0.00" departed="0" arrived="0" entered="0" left="0" laneChangedFrom="0" laneChangedTo="0"/>
            <lane id="4si_1" sampledSeconds="51.79" traveltime="18.15" overlapTraveltime="18.53" density="3.64" occupancy="1.82" waitingTime="0.00" speed="13.07" departed="0" arrived="0" entered="7" left="0" laneChangedFrom="0" laneChangedTo="0"/>
            <lane id="4si_2" sampledSeconds="286.85" traveltime="-5686.72" overlapTraveltime="37.10" density="20.16" occupancy="10.08" waitingTime="107.00" speed="6.53" departed="0" arrived="0" entered="9" left="1" laneChangedFrom="0" laneChangedTo="0"/>
        </edge>
    </interval>
    <interval begin="360.00" end="420.00" id="dump_60">
        <edge id="1fi">
            <lane id="1fi_0" sampledSeconds="375.22" traveltime="24.72" overlapTraveltime="25.16" density="25.17" occupancy="12.58" waitingTime="0.00" speed="10.08" departed="6" arrived="0" entered="9" left="15" laneChangedFrom="0" laneChangedTo="0"/>
        </edge>
        <edge id="1o">
            <lane id="1o_0" sampledSeconds="179.85" traveltime="46.67" overlapTraveltime="47.26" density="6.13" occupancy="3.07" waitingTime="0.00" speed="10.45" departed="0" arrived="0" entered="6" left="9" laneChangedFrom="0" laneChangedTo="0"/>
        </edge>
        <edge id="1si">
            <lane id="1si_0" sampledSeconds="0.00" departed="0" arrived="0" entered="0" left="0" laneChangedFrom="0" laneChangedTo="0"/>
            <lane id="1si_1" sampledSeconds="187.41" traveltime="24.19" overlapTraveltime="24.80" density="13.17" occupancy="6.59" waitingTime="45.00" speed="9.76" departed="0" arrived="0" entered="9" left="7" laneChangedFrom="0" laneChangedTo="0"/>
            <lane id="1si_2" sampledSeconds="260.50" traveltime="-32962.45" overlapTraveltime="49.98" density="18.31" occupancy="9.15" waitingTime="129.00" speed="4.85" departed="0" arrived="0" entered="6" left="2" laneChangedFrom="0" laneChangedTo="0"/>
        </edge>
        <edge id="2fi">
            <lane id="2fi_0" sampledSeconds="495.11" traveltime="24.48" overlapTraveltime="24.94" density="33.21" occupancy="16.60" waitingTime="0.00" speed="10.16" departed="5" arrived="9" entered="14" left="13" laneChangedFrom="0" laneChangedTo="0"/>
        </edge>
        <edge id="2o">
            <lane id="2o_0" sampledSeconds="702.80" traveltime="46.88" overlapTraveltime="47.37" density="23.97" occupancy="11.99" waitingTime="0.00" speed="10.42" departed="0" arrived="0" entered="21" left="14" laneChangedFrom="0" laneChangedTo="0"/>
        </edge>
        <edge id="2si">
            <lane id="2si_0" sampledSeconds="485.31" traveltime="90.30" overlapTraveltime="90.31" density="34.11" occupancy="17.05" waitingTime="325.00" speed="2.68" departed="0" arrived="0" entered="1" left="7" laneChangedFrom="0" laneChangedTo="0"/>
            <lane id="2si_1" sampledSeconds="243.03" traveltime="39.09" overlapTraveltime="39.73" density="17.08" occupancy="8.54" waitingTime="98.00" speed="6.09" departed="0" arrived="0" entered="8" left="6" laneChangedFrom="0" laneChangedTo="0"/>
            <lane id="2si_2" sampledSeconds="173.44" traveltime="-71806.95" overlapTraveltime="45.06" density="12.19" occupancy="6.09" waitingTime="77.00" speed="5.37" departed="0" arrived="0" entered="4" left="2" laneChangedFrom="0" laneChangedTo="0"/>
        </edge>
        <edge id="3fi">