<?xml version="1.0" encoding="UTF-8"?>

<!-- generated on 10/10/14 10:50:50 by SUMO Version dev-SVN-rUNKNOWN
<?xml version="1.0" encoding="UTF-8"?>

<configuration xmlns:xsi="http://www.w3.org/2001/XMLSchema-instance" xsi:noNamespaceSchemaLocation="http://sumo.dlr.de/xsd/sumoConfiguration.xsd">

    <input>
        <net-file value="three_split.net.xml"/>
        <route-files value="input_routes.rou.xml"/>
    </input>

    <output>
        <fcd-output value="fcd.xml"/>
        <tripinfo-output value="tripinfos.xml"/>
    </output>

    <time>
        <end value="150"/>
    </time>

    <report>
        <xml-validation value="never"/>
        <no-duration-log value="true"/>
        <no-step-log value="true"/>
    </report>

</configuration>
-->

<tripinfos xmlns:xsi="http://www.w3.org/2001/XMLSchema-instance" xsi:noNamespaceSchemaLocation="http://sumo.dlr.de/xsd/tripinfo_file.xsd">
    <containerinfo id="c1" depart="20.00">
        <stop arrival="20.00"/>
        <transport depart="39.00" arrival="136.00"/>
    </containerinfo>
    <containerinfo id="c2" depart="20.00">
        <stop arrival="20.00"/>
        <transport depart="85.00" arrival="136.00"/>
    </containerinfo>
    <tripinfo id="truck" depart="0.00" departLane="beg_0" departPos="0.00" departSpeed="0.00" departDelay="0.00" arrival="136.00" arrivalLane="beg2left_0" arrivalPos="503.09" arrivalSpeed="13.90" duration="136.00" routeLength="1003.09" waitSteps="63" timeLoss="81.37" rerouteNo="0" devices="tripinfo_truck container_truck" vType="DEFAULT_VEHTYPE" vaporized=""/>
</tripinfos>
