<?xml version="1.0" encoding="UTF-8"?>

<!-- generated on Tue Jan 28 09:27:28 2014 by SUMO sumo Version dev-SVN-r15441
<?xml version="1.0" encoding="UTF-8"?>

<configuration xmlns:xsi="http://www.w3.org/2001/XMLSchema-instance" xsi:noNamespaceSchemaLocation="http://sumo-sim.org/xsd/sumoConfiguration.xsd">

    <input>
        <net-file value="net.net.xml"/>
        <additional-files value="input_additional.add.xml,input_additional2.add.xml"/>
    </input>

    <output>
        <netstate-dump value="rawdump.xml"/>
    </output>

    <report>
        <xml-validation value="never"/>
        <no-step-log value="true"/>
    </report>

</configuration>
-->

<netstate xmlns:xsi="http://www.w3.org/2001/XMLSchema-instance" xsi:noNamespaceSchemaLocation="http://sumo-sim.org/xsd/netstate_file.xsd">
    <timestep time="0.00">
        <edge id="SC">
            <person id="p0" pos="68.45" angle="-180.00" stage="walking"/>
        </edge>
    </timestep>
    <timestep time="1.00">
        <edge id="SC">
            <person id="p0" pos="69.84" angle="-180.00" stage="walking"/>
        </edge>
    </timestep>
    <timestep time="2.00">
        <edge id="SC">
            <person id="p0" pos="71.23" angle="-180.00" stage="walking"/>
        </edge>
    </timestep>
    <timestep time="3.00">
        <edge id="SC">
            <person id="p0" pos="72.62" angle="-180.00" stage="walking"/>
        </edge>
    </timestep>
    <timestep time="4.00">
        <edge id="SC">
            <person id="p0" pos="74.01" angle="-180.00" stage="walking"/>
        </edge>
    </timestep>
    <timestep time="5.00">
        <edge id="SC">
            <person id="p0" pos="75.39" angle="-180.00" stage="walking"/>
        </edge>
    </timestep>
    <timestep time="6.00">
        <edge id="SC">
            <person id="p0" pos="76.78" angle="-180.00" stage="walking"/>
        </edge>
    </timestep>
    <timestep time="7.00">
        <edge id="SC">
            <person id="p0" pos="78.17" angle="-180.00" stage="walking"/>
        </edge>
    </timestep>
    <timestep time="8.00">
        <edge id="SC">
            <person id="p0" pos="79.56" angle="-180.00" stage="walking"/>
        </edge>
    </timestep>
    <timestep time="9.00">
        <edge id="SC">
            <person id="p0" pos="80.95" angle="-180.00" stage="walking"/>
        </edge>
    </timestep>
    <timestep time="10.00">
        <edge id="SC">
            <person id="p0" pos="82.34" angle="-180.00" stage="walking"/>
        </edge>
    </timestep>
    <timestep time="11.00">
        <edge id="SC">
            <person id="p0" pos="83.73" angle="-180.00" stage="walking"/>
        </edge>
    </timestep>
    <timestep time="12.00">
        <edge id="SC">
            <person id="p0" pos="85.12" angle="-180.00" stage="walking"/>
        </edge>
    </timestep>
    <timestep time="13.00">
        <edge id="SC">
            <person id="p0" pos="86.51" angle="-180.00" stage="walking"/>
        </edge>
    </timestep>
    <timestep time="14.00">
        <edge id="SC">
            <person id="p0" pos="87.89" angle="-180.00" stage="walking"/>
        </edge>
    </timestep>
    <timestep time="15.00">
        <edge id=":C_16">
            <person id="p0" pos="0.00" angle="8.51" stage="walking"/>
        </edge>
    </timestep>
    <timestep time="16.00">
        <edge id=":C_16">
            <person id="p0" pos="1.39" angle="32.80" stage="walking"/>
        </edge>
    </timestep>
    <timestep time="17.00">
        <edge id=":C_16">
            <person id="p0" pos="2.78" angle="60.45" stage="walking"/>
        </edge>
    </timestep>
    <timestep time="18.00">
        <edge id=":C_16">
            <person id="p0" pos="4.17" angle="82.46" stage="walking"/>
        </edge>
    </timestep>
    <timestep time="19.00">
        <edge id="CE">
            <person id="p0" pos="1.39" angle="90.00" stage="walking"/>
        </edge>
    </timestep>
    <timestep time="20.00">
        <edge id="CE">
            <person id="p0" pos="2.78" angle="90.00" stage="walking"/>
        </edge>
    </timestep>
    <timestep time="21.00">
        <edge id="CE">
            <person id="p0" pos="4.17" angle="90.00" stage="walking"/>
        </edge>
    </timestep>
    <timestep time="22.00">
        <edge id="CE">
            <person id="p0" pos="5.56" angle="90.00" stage="walking"/>
        </edge>
    </timestep>
    <timestep time="23.00">
        <edge id="CE">
            <person id="p0" pos="6.94" angle="90.00" stage="walking"/>
        </edge>
    </timestep>
    <timestep time="24.00">
        <edge id="CE">
            <person id="p0" pos="8.33" angle="90.00" stage="walking"/>
        </edge>
    </timestep>
    <timestep time="25.00">
        <edge id="CE">
            <person id="p0" pos="9.72" angle="90.00" stage="walking"/>
        </edge>
    </timestep>
    <timestep time="26.00">
        <edge id="CE">
            <person id="p0" pos="11.11" angle="90.00" stage="walking"/>
        </edge>
    </timestep>
    <timestep time="27.00">
        <edge id="CE">
            <person id="p0" pos="12.50" angle="90.00" stage="walking"/>
        </edge>
    </timestep>
    <timestep time="28.00">
        <edge id="CE">
            <person id="p0" pos="13.89" angle="90.00" stage="walking"/>
        </edge>
    </timestep>
    <timestep time="29.00">
        <edge id="CE">
            <person id="p0" pos="15.28" angle="90.00" stage="walking"/>
        </edge>
    </timestep>
    <timestep time="30.00">
        <edge id="CE">
            <person id="p0" pos="16.67" angle="90.00" stage="walking"/>
        </edge>
    </timestep>
    <timestep time="31.00">
        <edge id="CE">
            <person id="p0" pos="18.06" angle="90.00" stage="walking"/>
        </edge>
    </timestep>
    <timestep time="32.00">
        <edge id="CE">
            <person id="p0" pos="19.44" angle="90.00" stage="walking"/>
        </edge>
    </timestep>
    <timestep time="33.00"/>
</netstate>
