<?xml version="1.0" encoding="UTF-8"?>

<!-- generated on Wed Feb  5 09:24:05 2014 by SUMO sumo Version dev-SVN-r15541
<?xml version="1.0" encoding="UTF-8"?>

<configuration xmlns:xsi="http://www.w3.org/2001/XMLSchema-instance" xsi:noNamespaceSchemaLocation="http://sumo-sim.org/xsd/sumoConfiguration.xsd">

    <input>
        <net-file value="net.net.xml"/>
        <additional-files value="input_additional.add.xml,input_additional2.add.xml"/>
    </input>

    <output>
        <netstate-dump value="rawdump.xml"/>
    </output>

    <report>
        <xml-validation value="never"/>
        <no-step-log value="true"/>
    </report>

</configuration>
-->

<netstate xmlns:xsi="http://www.w3.org/2001/XMLSchema-instance" xsi:noNamespaceSchemaLocation="http://sumo-sim.org/xsd/netstate_file.xsd">
    <timestep time="0.00">
        <edge id="SC">
            <person id="p0" pos="66.05" angle="-180.00" stage="walking"/>
        </edge>
    </timestep>
    <timestep time="1.00">
        <edge id="SC">
            <person id="p0" pos="67.44" angle="-180.00" stage="walking"/>
        </edge>
    </timestep>
    <timestep time="2.00">
        <edge id="SC">
            <person id="p0" pos="68.83" angle="-180.00" stage="walking"/>
        </edge>
    </timestep>
    <timestep time="3.00">
        <edge id="SC">
            <person id="p0" pos="70.22" angle="-180.00" stage="walking"/>
        </edge>
    </timestep>
    <timestep time="4.00">
        <edge id="SC">
            <person id="p0" pos="71.61" angle="-180.00" stage="walking"/>
        </edge>
    </timestep>
    <timestep time="5.00">
        <edge id="SC">
            <person id="p0" pos="72.99" angle="-180.00" stage="walking"/>
        </edge>
    </timestep>
    <timestep time="6.00">
        <edge id="SC">
            <person id="p0" pos="74.38" angle="-180.00" stage="walking"/>
        </edge>
    </timestep>
    <timestep time="7.00">
        <edge id="SC">
            <person id="p0" pos="75.77" angle="-180.00" stage="walking"/>
        </edge>
    </timestep>
    <timestep time="8.00">
        <edge id="SC">
            <person id="p0" pos="77.16" angle="-180.00" stage="walking"/>
        </edge>
    </timestep>
    <timestep time="9.00">
        <edge id="SC">
            <person id="p0" pos="78.55" angle="-180.00" stage="walking"/>
        </edge>
    </timestep>
    <timestep time="10.00">
        <edge id="SC">
            <person id="p0" pos="79.94" angle="-180.00" stage="walking"/>
        </edge>
    </timestep>
    <timestep time="11.00">
        <edge id="SC">
            <person id="p0" pos="81.33" angle="-180.00" stage="walking"/>
        </edge>
    </timestep>
    <timestep time="12.00">
        <edge id="SC">
            <person id="p0" pos="82.72" angle="-180.00" stage="walking"/>
        </edge>
    </timestep>
    <timestep time="13.00">
        <edge id="SC">
            <person id="p0" pos="84.11" angle="-180.00" stage="walking"/>
        </edge>
    </timestep>
    <timestep time="14.00">
        <edge id="SC">
            <person id="p0" pos="85.49" angle="-180.00" stage="walking"/>
        </edge>
    </timestep>
    <timestep time="15.00">
        <edge id=":C_33">
            <person id="p0" pos="0.83" angle="-144.58" stage="walking"/>
        </edge>
    </timestep>
    <timestep time="16.00">
        <edge id=":C_33">
            <person id="p0" pos="2.22" angle="-144.58" stage="walking"/>
        </edge>
    </timestep>
    <timestep time="17.00">
        <edge id=":C_30">
            <person id="p0" pos="16.26" angle="270.00" stage="walking"/>
        </edge>
    </timestep>
    <timestep time="18.00">
        <edge id=":C_30">
            <person id="p0" pos="14.87" angle="270.00" stage="walking"/>
        </edge>
    </timestep>
    <timestep time="19.00">
        <edge id=":C_30">
            <person id="p0" pos="13.48" angle="270.00" stage="walking"/>
        </edge>
    </timestep>
    <timestep time="20.00">
        <edge id=":C_30">
            <person id="p0" pos="12.09" angle="270.00" stage="walking"/>
        </edge>
    </timestep>
    <timestep time="21.00">
        <edge id=":C_30">
            <person id="p0" pos="10.71" angle="270.00" stage="walking"/>
        </edge>
    </timestep>
    <timestep time="22.00">
        <edge id=":C_30">
            <person id="p0" pos="9.32" angle="270.00" stage="walking"/>
        </edge>
    </timestep>
    <timestep time="23.00">
        <edge id=":C_30">
            <person id="p0" pos="7.93" angle="270.00" stage="walking"/>
        </edge>
    </timestep>
    <timestep time="24.00">
        <edge id=":C_30">
            <person id="p0" pos="6.54" angle="270.00" stage="walking"/>
        </edge>
    </timestep>
    <timestep time="25.00">
        <edge id=":C_30">
            <person id="p0" pos="5.15" angle="270.00" stage="walking"/>
        </edge>
    </timestep>
    <timestep time="26.00">
        <edge id=":C_30">
            <person id="p0" pos="3.76" angle="270.00" stage="walking"/>
        </edge>
    </timestep>
    <timestep time="27.00">
        <edge id=":C_30">
            <person id="p0" pos="2.37" angle="270.00" stage="walking"/>
        </edge>
    </timestep>
    <timestep time="28.00">
        <edge id=":C_30">
            <person id="p0" pos="0.98" angle="270.00" stage="walking"/>
        </edge>
    </timestep>
    <timestep time="29.00">
        <edge id=":C_34">
            <person id="p0" pos="2.98" angle="259.75" stage="walking"/>
        </edge>
    </timestep>
    <timestep time="30.00">
        <edge id=":C_34">
            <person id="p0" pos="1.59" angle="259.75" stage="walking"/>
        </edge>
    </timestep>
    <timestep time="31.00">
        <edge id=":C_34">
            <person id="p0" pos="0.20" angle="259.75" stage="walking"/>
        </edge>
    </timestep>
    <timestep time="32.00">
        <edge id="WC">
            <person id="p0" pos="83.48" angle="270.00" stage="walking"/>
        </edge>
    </timestep>
    <timestep time="33.00">
        <edge id="WC">
            <person id="p0" pos="82.09" angle="270.00" stage="walking"/>
        </edge>
    </timestep>
    <timestep time="34.00">
        <edge id="WC">
            <person id="p0" pos="80.70" angle="270.00" stage="walking"/>
        </edge>
    </timestep>
    <timestep time="35.00">
        <edge id="WC">
            <person id="p0" pos="79.31" angle="270.00" stage="walking"/>
        </edge>
    </timestep>
    <timestep time="36.00">
        <edge id="WC">
            <person id="p0" pos="77.92" angle="270.00" stage="walking"/>
        </edge>
    </timestep>
    <timestep time="37.00">
        <edge id="WC">
            <person id="p0" pos="76.53" angle="270.00" stage="walking"/>
        </edge>
    </timestep>
    <timestep time="38.00">
        <edge id="WC">
            <person id="p0" pos="75.14" angle="270.00" stage="walking"/>
        </edge>
    </timestep>
    <timestep time="39.00">
        <edge id="WC">
            <person id="p0" pos="73.75" angle="270.00" stage="walking"/>
        </edge>
    </timestep>
    <timestep time="40.00">
        <edge id="WC">
            <person id="p0" pos="72.36" angle="270.00" stage="walking"/>
        </edge>
    </timestep>
    <timestep time="41.00">
        <edge id="WC">
            <person id="p0" pos="70.98" angle="270.00" stage="walking"/>
        </edge>
    </timestep>
    <timestep time="42.00">
        <edge id="WC">
            <person id="p0" pos="69.59" angle="270.00" stage="walking"/>
        </edge>
    </timestep>
    <timestep time="43.00">
        <edge id="WC">
            <person id="p0" pos="68.20" angle="270.00" stage="walking"/>
        </edge>
    </timestep>
    <timestep time="44.00">
        <edge id="WC">
            <person id="p0" pos="66.81" angle="270.00" stage="walking"/>
        </edge>
    </timestep>
    <timestep time="45.00"/>
</netstate>
