<?xml version="1.0" encoding="UTF-8"?>

<!-- generated on 02/17/15 16:41:42 by SUMO Version dev-SVN-r17881
<?xml version="1.0" encoding="UTF-8"?>

<configuration xmlns:xsi="http://www.w3.org/2001/XMLSchema-instance" xsi:noNamespaceSchemaLocation="http://sumo.dlr.de/xsd/sumoConfiguration.xsd">

    <input>
        <net-file value="net.net.xml"/>
        <route-files value="input_routes.rou.xml"/>
        <additional-files value="input_additional.add.xml"/>
    </input>

    <output>
        <netstate-dump value="rawdump.xml"/>
        <tripinfo-output value="tripinfos.xml"/>
    </output>

    <time>
        <end value="140"/>
    </time>

    <report>
        <verbose value="true"/>
        <xml-validation value="never"/>
        <no-step-log value="true"/>
    </report>

</configuration>
-->

<tripinfos xmlns:xsi="http://www.w3.org/2001/XMLSchema-instance" xsi:noNamespaceSchemaLocation="http://sumo.dlr.de/xsd/tripinfo_file.xsd">
    <containerinfo id="container0" depart="0.00">
        <stop arrival="0.00"/>
        <transport depart="66.00" arrival="85.00"/>
    </containerinfo>
    <tripinfo id="vehicle1" depart="0.00" departLane="1/4to1/3_0" departPos="0.00" departSpeed="0.00" departDelay="0.00" arrival="118.00" arrivalLane="1/4to1/3_0" arrivalPos="90.50" arrivalSpeed="13.90" duration="118.00" routeLength="473.08" waitSteps="72" timeLoss="83.31" rerouteNo="0" devices="tripinfo_vehicle1 container_vehicle1" vType="DEFAULT_VEHTYPE" vaporized=""/>
</tripinfos>
