<?xml version="1.0" encoding="UTF-8"?>

<!-- generated on 10/13/14 09:31:10 by SUMO Version dev-SVN-rUNKNOWN
<?xml version="1.0" encoding="UTF-8"?>

<configuration xmlns:xsi="http://www.w3.org/2001/XMLSchema-instance" xsi:noNamespaceSchemaLocation="http://sumo.dlr.de/xsd/sumoConfiguration.xsd">

    <input>
        <net-file value="three_split.net.xml"/>
        <route-files value="input_routes.rou.xml"/>
    </input>

    <output>
        <tripinfo-output value="tripinfos.xml"/>
    </output>

    <report>
        <xml-validation value="never"/>
        <no-duration-log value="true"/>
        <no-step-log value="true"/>
    </report>

</configuration>
-->

<tripinfos xmlns:xsi="http://www.w3.org/2001/XMLSchema-instance" xsi:noNamespaceSchemaLocation="http://sumo.dlr.de/xsd/tripinfo_file.xsd">
    <containerinfo id="c1" depart="50.00">
        <stop arrival="50.00"/>
        <transport depart="51.00" arrival="232.00"/>
    </containerinfo>
    <tripinfo id="v1" depart="0.00" departLane="beg_0" departPos="0.00" departSpeed="0.00" departDelay="0.00" arrival="232.00" arrivalLane="end_0" arrivalPos="500.00" arrivalSpeed="27.80" duration="232.00" routeLength="3012.36" waitSteps="0" timeLoss="17.37" rerouteNo="0" devices="tripinfo_v1 container_v1" vType="DEFAULT_VEHTYPE" vaporized=""/>
</tripinfos>
