<?xml version="1.0" encoding="UTF-8"?>

<!-- generated on Wed Mar 26 15:25:19 2014 by SUMO sumo Version dev-SVN-r16032
<?xml version="1.0" encoding="UTF-8"?>

<configuration xmlns:xsi="http://www.w3.org/2001/XMLSchema-instance" xsi:noNamespaceSchemaLocation="http://sumo-sim.org/xsd/sumoConfiguration.xsd">

    <input>
        <net-file value="net.net.xml"/>
        <additional-files value="input_additional.add.xml,input_additional2.add.xml"/>
    </input>

    <output>
        <netstate-dump value="rawdump.xml"/>
    </output>

    <processing>
        <pedestrian.model value="nonInteracting"/>
        <pedestrian.dawdling value="0"/>
    </processing>

    <report>
        <xml-validation value="never"/>
        <no-step-log value="true"/>
    </report>

</configuration>
-->

<netstate xmlns:xsi="http://www.w3.org/2001/XMLSchema-instance" xsi:noNamespaceSchemaLocation="http://sumo-sim.org/xsd/netstate_file.xsd">
    <timestep time="0.00">
        <edge id="CS">
            <person id="p0" pos="20.00" angle="0.00" stage="walking"/>
        </edge>
    </timestep>
    <timestep time="1.00">
        <edge id="CS">
            <person id="p0" pos="21.39" angle="0.00" stage="walking"/>
        </edge>
    </timestep>
    <timestep time="2.00">
        <edge id="CS">
            <person id="p0" pos="22.78" angle="0.00" stage="walking"/>
        </edge>
    </timestep>
    <timestep time="3.00">
        <edge id="CS">
            <person id="p0" pos="24.17" angle="0.00" stage="walking"/>
        </edge>
    </timestep>
    <timestep time="4.00">
        <edge id="CS">
            <person id="p0" pos="25.56" angle="0.00" stage="walking"/>
        </edge>
    </timestep>
    <timestep time="5.00">
        <edge id="CS">
            <person id="p0" pos="26.94" angle="0.00" stage="walking"/>
        </edge>
    </timestep>
    <timestep time="6.00">
        <edge id="CS">
            <person id="p0" pos="28.33" angle="0.00" stage="walking"/>
        </edge>
    </timestep>
    <timestep time="7.00">
        <edge id="CS">
            <person id="p0" pos="29.72" angle="0.00" stage="walking"/>
        </edge>
    </timestep>
    <timestep time="8.00">
        <edge id="CS">
            <person id="p0" pos="31.11" angle="0.00" stage="walking"/>
        </edge>
    </timestep>
    <timestep time="9.00">
        <edge id="CS">
            <person id="p0" pos="32.50" angle="0.00" stage="walking"/>
        </edge>
    </timestep>
    <timestep time="10.00">
        <edge id="CS">
            <person id="p0" pos="33.89" angle="0.00" stage="walking"/>
        </edge>
    </timestep>
    <timestep time="11.00">
        <edge id="CS">
            <person id="p0" pos="35.28" angle="0.00" stage="walking"/>
        </edge>
    </timestep>
    <timestep time="12.00">
        <edge id="CS">
            <person id="p0" pos="36.67" angle="0.00" stage="walking"/>
        </edge>
    </timestep>
    <timestep time="13.00">
        <edge id="CS">
            <person id="p0" pos="38.06" angle="0.00" stage="walking"/>
        </edge>
    </timestep>
    <timestep time="14.00">
        <edge id="CS">
            <person id="p0" pos="39.44" angle="0.00" stage="walking"/>
        </edge>
    </timestep>
    <timestep time="15.00">
        <edge id="CS">
            <person id="p0" pos="40.83" angle="0.00" stage="walking"/>
        </edge>
    </timestep>
    <timestep time="16.00">
        <edge id="CS">
            <person id="p0" pos="42.22" angle="0.00" stage="walking"/>
        </edge>
    </timestep>
    <timestep time="17.00">
        <edge id="CS">
            <person id="p0" pos="43.61" angle="0.00" stage="walking"/>
        </edge>
    </timestep>
    <timestep time="18.00">
        <edge id="CS">
            <person id="p0" pos="45.00" angle="0.00" stage="walking"/>
        </edge>
    </timestep>
    <timestep time="19.00">
        <edge id="CS">
            <person id="p0" pos="46.39" angle="0.00" stage="walking"/>
        </edge>
    </timestep>
    <timestep time="20.00">
        <edge id="CS">
            <person id="p0" pos="47.78" angle="0.00" stage="walking"/>
        </edge>
    </timestep>
    <timestep time="21.00">
        <edge id="CS">
            <person id="p0" pos="49.17" angle="0.00" stage="walking"/>
        </edge>
    </timestep>
    <timestep time="22.00">
        <edge id="CS">
            <person id="p0" pos="50.56" angle="0.00" stage="walking"/>
        </edge>
    </timestep>
    <timestep time="23.00">
        <edge id="CS">
            <person id="p0" pos="51.94" angle="0.00" stage="walking"/>
        </edge>
    </timestep>
    <timestep time="24.00">
        <edge id="CS">
            <person id="p0" pos="53.33" angle="0.00" stage="walking"/>
        </edge>
    </timestep>
    <timestep time="25.00">
        <edge id="CS">
            <person id="p0" pos="54.72" angle="0.00" stage="walking"/>
        </edge>
    </timestep>
    <timestep time="26.00">
        <edge id="CS">
            <person id="p0" pos="56.11" angle="0.00" stage="walking"/>
        </edge>
    </timestep>
    <timestep time="27.00">
        <edge id="CS">
            <person id="p0" pos="57.50" angle="0.00" stage="walking"/>
        </edge>
    </timestep>
    <timestep time="28.00">
        <edge id="CS">
            <person id="p0" pos="58.89" angle="0.00" stage="walking"/>
        </edge>
    </timestep>
    <timestep time="29.00">
        <edge id="CS">
            <person id="p0" pos="60.28" angle="0.00" stage="walking"/>
        </edge>
    </timestep>
    <timestep time="30.00">
        <edge id="CS">
            <person id="p0" pos="61.67" angle="0.00" stage="walking"/>
        </edge>
    </timestep>
    <timestep time="31.00">
        <edge id="CS">
            <person id="p0" pos="63.06" angle="0.00" stage="walking"/>
        </edge>
    </timestep>
    <timestep time="32.00">
        <edge id="CS">
            <person id="p0" pos="64.45" angle="0.00" stage="walking"/>
        </edge>
    </timestep>
    <timestep time="33.00">
        <edge id="CS">
            <person id="p0" pos="65.83" angle="0.00" stage="walking"/>
        </edge>
    </timestep>
    <timestep time="34.00">
        <edge id="CS">
            <person id="p0" pos="67.22" angle="0.00" stage="walking"/>
        </edge>
    </timestep>
    <timestep time="35.00">
        <edge id="CS">
            <person id="p0" pos="68.61" angle="0.00" stage="walking"/>
        </edge>
    </timestep>
    <timestep time="36.00">
        <edge id="CS">
            <person id="p0" pos="70.00" angle="0.00" stage="walking"/>
        </edge>
    </timestep>
    <timestep time="37.00">
        <edge id="CS">
            <person id="p0" pos="71.39" angle="0.00" stage="walking"/>
        </edge>
    </timestep>
    <timestep time="38.00">
        <edge id="CS">
            <person id="p0" pos="72.78" angle="0.00" stage="walking"/>
        </edge>
    </timestep>
    <timestep time="39.00">
        <edge id="CS">
            <person id="p0" pos="74.17" angle="0.00" stage="walking"/>
        </edge>
    </timestep>
    <timestep time="40.00">
        <edge id="CS">
            <person id="p0" pos="75.56" angle="0.00" stage="walking"/>
        </edge>
    </timestep>
    <timestep time="41.00">
        <edge id="CS">
            <person id="p0" pos="76.95" angle="0.00" stage="walking"/>
        </edge>
    </timestep>
    <timestep time="42.00">
        <edge id="CS">
            <person id="p0" pos="78.33" angle="0.00" stage="walking"/>
        </edge>
    </timestep>
    <timestep time="43.00">
        <edge id="CS">
            <person id="p0" pos="79.72" angle="0.00" stage="walking"/>
        </edge>
    </timestep>
    <timestep time="44.00">
        <edge id="CS">
            <person id="p0" pos="81.11" angle="0.00" stage="walking"/>
        </edge>
    </timestep>
    <timestep time="45.00">
        <edge id="CS">
            <person id="p0" pos="82.50" angle="0.00" stage="walking"/>
        </edge>
    </timestep>
    <timestep time="46.00">
        <edge id="CS">
            <person id="p0" pos="83.89" angle="0.00" stage="walking"/>
        </edge>
    </timestep>
    <timestep time="47.00">
        <edge id="SC">
            <person id="p0" pos="0.00" angle="-180.00" stage="walking"/>
        </edge>
    </timestep>
    <timestep time="48.00">
        <edge id="SC">
            <person id="p0" pos="1.39" angle="-180.00" stage="walking"/>
        </edge>
    </timestep>
    <timestep time="49.00">
        <edge id="SC">
            <person id="p0" pos="2.78" angle="-180.00" stage="walking"/>
        </edge>
    </timestep>
    <timestep time="50.00">
        <edge id="SC">
            <person id="p0" pos="4.17" angle="-180.00" stage="walking"/>
        </edge>
    </timestep>
    <timestep time="51.00">
        <edge id="SC">
            <person id="p0" pos="5.56" angle="-180.00" stage="walking"/>
        </edge>
    </timestep>
    <timestep time="52.00">
        <edge id="SC">
            <person id="p0" pos="6.94" angle="-180.00" stage="walking"/>
        </edge>
    </timestep>
    <timestep time="53.00">
        <edge id="SC">
            <person id="p0" pos="8.33" angle="-180.00" stage="walking"/>
        </edge>
    </timestep>
    <timestep time="54.00">
        <edge id="SC">
            <person id="p0" pos="9.72" angle="-180.00" stage="walking"/>
        </edge>
    </timestep>
    <timestep time="55.00">
        <edge id="SC">
            <person id="p0" pos="11.11" angle="-180.00" stage="walking"/>
        </edge>
    </timestep>
    <timestep time="56.00">
        <edge id="SC">
            <person id="p0" pos="12.50" angle="-180.00" stage="walking"/>
        </edge>
    </timestep>
    <timestep time="57.00">
        <edge id="SC">
            <person id="p0" pos="13.89" angle="-180.00" stage="walking"/>
        </edge>
    </timestep>
    <timestep time="58.00">
        <edge id="SC">
            <person id="p0" pos="15.28" angle="-180.00" stage="walking"/>
        </edge>
    </timestep>
    <timestep time="59.00">
        <edge id="SC">
            <person id="p0" pos="16.67" angle="-180.00" stage="walking"/>
        </edge>
    </timestep>
    <timestep time="60.00">
        <edge id="SC">
            <person id="p0" pos="18.06" angle="-180.00" stage="walking"/>
        </edge>
    </timestep>
    <timestep time="61.00">
        <edge id="SC">
            <person id="p0" pos="19.44" angle="-180.00" stage="walking"/>
        </edge>
    </timestep>
    <timestep time="62.00">
        <edge id="SC">
            <person id="p0" pos="20.83" angle="-180.00" stage="walking"/>
        </edge>
    </timestep>
    <timestep time="63.00">
        <edge id="SC">
            <person id="p0" pos="22.22" angle="-180.00" stage="walking"/>
        </edge>
    </timestep>
    <timestep time="64.00">
        <edge id="SC">
            <person id="p0" pos="23.61" angle="-180.00" stage="walking"/>
        </edge>
    </timestep>
    <timestep time="65.00">
        <edge id="SC">
            <person id="p0" pos="25.00" angle="-180.00" stage="walking"/>
        </edge>
    </timestep>
    <timestep time="66.00">
        <edge id="SC">
            <person id="p0" pos="26.39" angle="-180.00" stage="walking"/>
        </edge>
    </timestep>
    <timestep time="67.00">
        <edge id="SC">
            <person id="p0" pos="27.78" angle="-180.00" stage="walking"/>
        </edge>
    </timestep>
    <timestep time="68.00">
        <edge id="SC">
            <person id="p0" pos="29.17" angle="-180.00" stage="walking"/>
        </edge>
    </timestep>
    <timestep time="69.00">
        <edge id="SC">
            <person id="p0" pos="30.56" angle="-180.00" stage="walking"/>
        </edge>
    </timestep>
    <timestep time="70.00">
        <edge id="SC">
            <person id="p0" pos="31.94" angle="-180.00" stage="walking"/>
        </edge>
    </timestep>
    <timestep time="71.00">
        <edge id="SC">
            <person id="p0" pos="33.33" angle="-180.00" stage="walking"/>
        </edge>
    </timestep>
    <timestep time="72.00">
        <edge id="SC">
            <person id="p0" pos="34.72" angle="-180.00" stage="walking"/>
        </edge>
    </timestep>
    <timestep time="73.00">
        <edge id="SC">
            <person id="p0" pos="36.11" angle="-180.00" stage="walking"/>
        </edge>
    </timestep>
    <timestep time="74.00">
        <edge id="SC">
            <person id="p0" pos="37.50" angle="-180.00" stage="walking"/>
        </edge>
    </timestep>
    <timestep time="75.00">
        <edge id="SC">
            <person id="p0" pos="38.89" angle="-180.00" stage="walking"/>
        </edge>
    </timestep>
    <timestep time="76.00">
        <edge id="SC">
            <person id="p0" pos="40.28" angle="-180.00" stage="walking"/>
        </edge>
    </timestep>
    <timestep time="77.00">
        <edge id="SC">
            <person id="p0" pos="41.67" angle="-180.00" stage="walking"/>
        </edge>
    </timestep>
    <timestep time="78.00">
        <edge id="SC">
            <person id="p0" pos="43.06" angle="-180.00" stage="walking"/>
        </edge>
    </timestep>
    <timestep time="79.00">
        <edge id="SC">
            <person id="p0" pos="44.45" angle="-180.00" stage="walking"/>
        </edge>
    </timestep>
    <timestep time="80.00">
        <edge id="SC">
            <person id="p0" pos="45.83" angle="-180.00" stage="walking"/>
        </edge>
    </timestep>
    <timestep time="81.00">
        <edge id="SC">
            <person id="p0" pos="47.22" angle="-180.00" stage="walking"/>
        </edge>
    </timestep>
    <timestep time="82.00">
        <edge id="SC">
            <person id="p0" pos="48.61" angle="-180.00" stage="walking"/>
        </edge>
    </timestep>
    <timestep time="83.00">
        <edge id="SC">
            <person id="p0" pos="50.00" angle="-180.00" stage="walking"/>
        </edge>
    </timestep>
    <timestep time="84.00">
        <edge id="SC">
            <person id="p0" pos="51.39" angle="-180.00" stage="walking"/>
        </edge>
    </timestep>
    <timestep time="85.00">
        <edge id="SC">
            <person id="p0" pos="52.78" angle="-180.00" stage="walking"/>
        </edge>
    </timestep>
    <timestep time="86.00">
        <edge id="SC">
            <person id="p0" pos="54.17" angle="-180.00" stage="walking"/>
        </edge>
    </timestep>
    <timestep time="87.00">
        <edge id="SC">
            <person id="p0" pos="55.56" angle="-180.00" stage="walking"/>
        </edge>
    </timestep>
    <timestep time="88.00">
        <edge id="SC">
            <person id="p0" pos="56.95" angle="-180.00" stage="walking"/>
        </edge>
    </timestep>
    <timestep time="89.00">
        <edge id="SC">
            <person id="p0" pos="58.33" angle="-180.00" stage="walking"/>
        </edge>
    </timestep>
    <timestep time="90.00">
        <edge id="SC">
            <person id="p0" pos="59.72" angle="-180.00" stage="walking"/>
        </edge>
    </timestep>
    <timestep time="91.00">
        <edge id="SC">
            <person id="p0" pos="61.11" angle="-180.00" stage="walking"/>
        </edge>
    </timestep>
    <timestep time="92.00">
        <edge id="SC">
            <person id="p0" pos="62.50" angle="-180.00" stage="walking"/>
        </edge>
    </timestep>
    <timestep time="93.00">
        <edge id="SC">
            <person id="p0" pos="63.89" angle="-180.00" stage="walking"/>
        </edge>
    </timestep>
    <timestep time="94.00"/>
</netstate>
