<?xml version="1.0" encoding="UTF-8"?>

<!-- generated on Wed Jun  5 07:55:26 2013 by SUMO sumo Version dev-SVN-rUNKNOWN
<?xml version="1.0" encoding="UTF-8"?>

<configuration xmlns:xsi="http://www.w3.org/2001/XMLSchema-instance" xsi:noNamespaceSchemaLocation="http://sumo.sf.net/xsd/sumoConfiguration.xsd">

    <input>
        <net-file value="three_split.net.xml"/>
        <route-files value="input_routes.rou.xml"/>
    </input>

    <output>
        <tripinfo-output value="tripinfos.xml"/>
    </output>

    <time>
        <end value="300"/>
    </time>

    <processing>
        <time-to-teleport value="60"/>
    </processing>

    <report>
        <no-duration-log value="true"/>
        <no-step-log value="true"/>
    </report>

</configuration>
-->

<tripinfos>
    <tripinfo id="priority.0" depart="0.00" departLane="middle_0" departPos="800.00" departSpeed="27.80" departDelay="0.00" arrival="26.00" arrivalLane="end_0" arrivalPos="495.25" arrivalSpeed="27.19" duration="26.00" routeLength="685.75" waitSteps="0" rerouteNo="0" devices="tripinfo_priority.0" vType="DEFAULT_VEHTYPE" vaporized=""/>
    <tripinfo id="priority.1" depart="3.00" departLane="middle_0" departPos="800.00" departSpeed="27.80" departDelay="-0.10" arrival="29.00" arrivalLane="end_0" arrivalPos="495.25" arrivalSpeed="27.05" duration="26.00" routeLength="685.75" waitSteps="0" rerouteNo="0" devices="tripinfo_priority.1" vType="DEFAULT_VEHTYPE" vaporized=""/>
    <tripinfo id="priority.2" depart="6.00" departLane="middle_0" departPos="800.00" departSpeed="27.80" departDelay="-0.20" arrival="32.00" arrivalLane="end_0" arrivalPos="495.25" arrivalSpeed="27.21" duration="26.00" routeLength="685.75" waitSteps="0" rerouteNo="0" devices="tripinfo_priority.2" vType="DEFAULT_VEHTYPE" vaporized=""/>
    <tripinfo id="priority.3" depart="9.00" departLane="middle_0" departPos="800.00" departSpeed="27.80" departDelay="-0.30" arrival="35.00" arrivalLane="end_0" arrivalPos="495.25" arrivalSpeed="26.72" duration="26.00" routeLength="685.75" waitSteps="0" rerouteNo="0" devices="tripinfo_priority.3" vType="DEFAULT_VEHTYPE" vaporized=""/>
    <tripinfo id="priority.4" depart="12.00" departLane="middle_0" departPos="800.00" departSpeed="27.80" departDelay="-0.40" arrival="38.00" arrivalLane="end_0" arrivalPos="495.25" arrivalSpeed="27.52" duration="26.00" routeLength="685.75" waitSteps="0" rerouteNo="0" devices="tripinfo_priority.4" vType="DEFAULT_VEHTYPE" vaporized=""/>
    <tripinfo id="priority.5" depart="15.00" departLane="middle_0" departPos="800.00" departSpeed="27.80" departDelay="-0.50" arrival="41.00" arrivalLane="end_0" arrivalPos="495.25" arrivalSpeed="27.27" duration="26.00" routeLength="685.75" waitSteps="0" rerouteNo="0" devices="tripinfo_priority.5" vType="DEFAULT_VEHTYPE" vaporized=""/>
    <tripinfo id="priority.6" depart="18.00" departLane="middle_0" departPos="800.00" departSpeed="27.80" departDelay="-0.60" arrival="44.00" arrivalLane="end_0" arrivalPos="495.25" arrivalSpeed="26.91" duration="26.00" routeLength="685.75" waitSteps="0" rerouteNo="0" devices="tripinfo_priority.6" vType="DEFAULT_VEHTYPE" vaporized=""/>
    <tripinfo id="priority.7" depart="21.00" departLane="middle_0" departPos="800.00" departSpeed="27.80" departDelay="-0.70" arrival="47.00" arrivalLane="end_0" arrivalPos="495.25" arrivalSpeed="26.69" duration="26.00" routeLength="685.75" waitSteps="0" rerouteNo="0" devices="tripinfo_priority.7" vType="DEFAULT_VEHTYPE" vaporized=""/>
    <tripinfo id="priority.8" depart="24.00" departLane="middle_0" departPos="800.00" departSpeed="27.80" departDelay="-0.80" arrival="50.00" arrivalLane="end_0" arrivalPos="495.25" arrivalSpeed="26.54" duration="26.00" routeLength="685.75" waitSteps="0" rerouteNo="0" devices="tripinfo_priority.8" vType="DEFAULT_VEHTYPE" vaporized=""/>
    <tripinfo id="priority.9" depart="27.00" departLane="middle_0" departPos="800.00" departSpeed="27.80" departDelay="-0.90" arrival="53.00" arrivalLane="end_0" arrivalPos="495.25" arrivalSpeed="26.75" duration="26.00" routeLength="685.75" waitSteps="0" rerouteNo="0" devices="tripinfo_priority.9" vType="DEFAULT_VEHTYPE" vaporized=""/>
    <tripinfo id="priority.10" depart="31.00" departLane="middle_0" departPos="800.00" departSpeed="27.80" departDelay="0.00" arrival="57.00" arrivalLane="end_0" arrivalPos="495.25" arrivalSpeed="27.36" duration="26.00" routeLength="685.75" waitSteps="0" rerouteNo="0" devices="tripinfo_priority.10" vType="DEFAULT_VEHTYPE" vaporized=""/>
    <tripinfo id="priority.11" depart="34.00" departLane="middle_0" departPos="800.00" departSpeed="27.80" departDelay="-0.10" arrival="60.00" arrivalLane="end_0" arrivalPos="495.25" arrivalSpeed="26.89" duration="26.00" routeLength="685.75" waitSteps="0" rerouteNo="0" devices="tripinfo_priority.11" vType="DEFAULT_VEHTYPE" vaporized=""/>
    <tripinfo id="priority.12" depart="37.00" departLane="middle_0" departPos="800.00" departSpeed="27.80" departDelay="-0.20" arrival="63.00" arrivalLane="end_0" arrivalPos="495.25" arrivalSpeed="26.82" duration="26.00" routeLength="685.75" waitSteps="0" rerouteNo="0" devices="tripinfo_priority.12" vType="DEFAULT_VEHTYPE" vaporized=""/>
    <tripinfo id="priority.13" depart="40.00" departLane="middle_0" departPos="800.00" departSpeed="27.80" departDelay="-0.30" arrival="66.00" arrivalLane="end_0" arrivalPos="495.25" arrivalSpeed="27.52" duration="26.00" routeLength="685.75" waitSteps="0" rerouteNo="0" devices="tripinfo_priority.13" vType="DEFAULT_VEHTYPE" vaporized=""/>
    <tripinfo id="priority.14" depart="43.00" departLane="middle_0" departPos="800.00" departSpeed="27.80" departDelay="-0.40" arrival="69.00" arrivalLane="end_0" arrivalPos="495.25" arrivalSpeed="26.76" duration="26.00" routeLength="685.75" waitSteps="0" rerouteNo="0" devices="tripinfo_priority.14" vType="DEFAULT_VEHTYPE" vaporized=""/>
    <tripinfo id="priority.15" depart="46.00" departLane="middle_0" departPos="800.00" departSpeed="27.80" departDelay="-0.50" arrival="72.00" arrivalLane="end_0" arrivalPos="495.25" arrivalSpeed="26.89" duration="26.00" routeLength="685.75" waitSteps="0" rerouteNo="0" devices="tripinfo_priority.15" vType="DEFAULT_VEHTYPE" vaporized=""/>
    <tripinfo id="priority.16" depart="49.00" departLane="middle_0" departPos="800.00" departSpeed="27.80" departDelay="-0.60" arrival="75.00" arrivalLane="end_0" arrivalPos="495.25" arrivalSpeed="27.52" duration="26.00" routeLength="685.75" waitSteps="0" rerouteNo="0" devices="tripinfo_priority.16" vType="DEFAULT_VEHTYPE" vaporized=""/>
    <tripinfo id="priority.17" depart="52.00" departLane="middle_0" departPos="800.00" departSpeed="27.80" departDelay="-0.70" arrival="78.00" arrivalLane="end_0" arrivalPos="495.25" arrivalSpeed="27.11" duration="26.00" routeLength="685.75" waitSteps="0" rerouteNo="0" devices="tripinfo_priority.17" vType="DEFAULT_VEHTYPE" vaporized=""/>
    <tripinfo id="priority.18" depart="55.00" departLane="middle_0" departPos="800.00" departSpeed="27.80" departDelay="-0.80" arrival="81.00" arrivalLane="end_0" arrivalPos="495.25" arrivalSpeed="27.62" duration="26.00" routeLength="685.75" waitSteps="0" rerouteNo="0" devices="tripinfo_priority.18" vType="DEFAULT_VEHTYPE" vaporized=""/>
    <tripinfo id="priority.19" depart="58.00" departLane="middle_0" departPos="800.00" departSpeed="27.80" departDelay="-0.90" arrival="84.00" arrivalLane="end_0" arrivalPos="495.25" arrivalSpeed="27.16" duration="26.00" routeLength="685.75" waitSteps="0" rerouteNo="0" devices="tripinfo_priority.19" vType="DEFAULT_VEHTYPE" vaporized=""/>
    <tripinfo id="priority.20" depart="62.00" departLane="middle_0" departPos="800.00" departSpeed="27.80" departDelay="0.00" arrival="88.00" arrivalLane="end_0" arrivalPos="495.25" arrivalSpeed="27.27" duration="26.00" routeLength="685.75" waitSteps="0" rerouteNo="0" devices="tripinfo_priority.20" vType="DEFAULT_VEHTYPE" vaporized=""/>
    <tripinfo id="priority.21" depart="65.00" departLane="middle_0" departPos="800.00" departSpeed="27.80" departDelay="-0.10" arrival="91.00" arrivalLane="end_0" arrivalPos="495.25" arrivalSpeed="27.72" duration="26.00" routeLength="685.75" waitSteps="0" rerouteNo="0" devices="tripinfo_priority.21" vType="DEFAULT_VEHTYPE" vaporized=""/>
    <tripinfo id="priority.22" depart="68.00" departLane="middle_0" departPos="800.00" departSpeed="27.80" departDelay="-0.20" arrival="94.00" arrivalLane="end_0" arrivalPos="495.25" arrivalSpeed="27.69" duration="26.00" routeLength="685.75" waitSteps="0" rerouteNo="0" devices="tripinfo_priority.22" vType="DEFAULT_VEHTYPE" vaporized=""/>
    <tripinfo id="priority.23" depart="71.00" departLane="middle_0" departPos="800.00" departSpeed="27.80" departDelay="-0.30" arrival="97.00" arrivalLane="end_0" arrivalPos="495.25" arrivalSpeed="27.02" duration="26.00" routeLength="685.75" waitSteps="0" rerouteNo="0" devices="tripinfo_priority.23" vType="DEFAULT_VEHTYPE" vaporized=""/>
    <tripinfo id="priority.24" depart="74.00" departLane="middle_0" departPos="800.00" departSpeed="27.80" departDelay="-0.40" arrival="100.00" arrivalLane="end_0" arrivalPos="495.25" arrivalSpeed="26.84" duration="26.00" routeLength="685.75" waitSteps="0" rerouteNo="0" devices="tripinfo_priority.24" vType="DEFAULT_VEHTYPE" vaporized=""/>
    <tripinfo id="priority.25" depart="77.00" departLane="middle_0" departPos="800.00" departSpeed="27.80" departDelay="-0.50" arrival="103.00" arrivalLane="end_0" arrivalPos="495.25" arrivalSpeed="26.53" duration="26.00" routeLength="685.75" waitSteps="0" rerouteNo="0" devices="tripinfo_priority.25" vType="DEFAULT_VEHTYPE" vaporized=""/>
    <tripinfo id="priority.26" depart="80.00" departLane="middle_0" departPos="800.00" departSpeed="27.80" departDelay="-0.60" arrival="106.00" arrivalLane="end_0" arrivalPos="495.25" arrivalSpeed="27.24" duration="26.00" routeLength="685.75" waitSteps="0" rerouteNo="0" devices="tripinfo_priority.26" vType="DEFAULT_VEHTYPE" vaporized=""/>
    <tripinfo id="priority.27" depart="83.00" departLane="middle_0" departPos="800.00" departSpeed="27.80" departDelay="-0.70" arrival="109.00" arrivalLane="end_0" arrivalPos="495.25" arrivalSpeed="27.78" duration="26.00" routeLength="685.75" waitSteps="0" rerouteNo="0" devices="tripinfo_priority.27" vType="DEFAULT_VEHTYPE" vaporized=""/>
    <tripinfo id="priority.28" depart="86.00" departLane="middle_0" departPos="800.00" departSpeed="27.80" departDelay="-0.80" arrival="112.00" arrivalLane="end_0" arrivalPos="495.25" arrivalSpeed="27.14" duration="26.00" routeLength="685.75" waitSteps="0" rerouteNo="0" devices="tripinfo_priority.28" vType="DEFAULT_VEHTYPE" vaporized=""/>
    <tripinfo id="priority.29" depart="89.00" departLane="middle_0" departPos="800.00" departSpeed="27.80" departDelay="-0.90" arrival="115.00" arrivalLane="end_0" arrivalPos="495.25" arrivalSpeed="27.58" duration="26.00" routeLength="685.75" waitSteps="0" rerouteNo="0" devices="tripinfo_priority.29" vType="DEFAULT_VEHTYPE" vaporized=""/>
    <tripinfo id="ego" depart="0.00" departLane="right2end_0" departPos="400.00" departSpeed="0.00" departDelay="0.00" arrival="122.00" arrivalLane="end_0" arrivalPos="495.25" arrivalSpeed="27.03" duration="122.00" routeLength="590.55" waitSteps="80" rerouteNo="0" devices="tripinfo_ego" vType="t" vaporized=""/>
    <tripinfo id="priority.30" depart="93.00" departLane="middle_0" departPos="800.00" departSpeed="27.80" departDelay="0.00" arrival="124.00" arrivalLane="end_0" arrivalPos="495.25" arrivalSpeed="27.27" duration="31.00" routeLength="685.75" waitSteps="0" rerouteNo="0" devices="tripinfo_priority.30" vType="DEFAULT_VEHTYPE" vaporized=""/>
    <tripinfo id="priority.31" depart="96.00" departLane="middle_0" departPos="800.00" departSpeed="27.80" departDelay="-0.10" arrival="125.00" arrivalLane="end_0" arrivalPos="495.25" arrivalSpeed="27.38" duration="29.00" routeLength="685.75" waitSteps="0" rerouteNo="0" devices="tripinfo_priority.31" vType="DEFAULT_VEHTYPE" vaporized=""/>
    <tripinfo id="priority.32" depart="99.00" departLane="middle_0" departPos="800.00" departSpeed="27.80" departDelay="-0.20" arrival="127.00" arrivalLane="end_0" arrivalPos="495.25" arrivalSpeed="26.77" duration="28.00" routeLength="685.75" waitSteps="0" rerouteNo="0" devices="tripinfo_priority.32" vType="DEFAULT_VEHTYPE" vaporized=""/>
    <tripinfo id="priority.33" depart="102.00" departLane="middle_0" departPos="800.00" departSpeed="27.80" departDelay="-0.30" arrival="128.00" arrivalLane="end_0" arrivalPos="495.25" arrivalSpeed="27.65" duration="26.00" routeLength="685.75" waitSteps="0" rerouteNo="0" devices="tripinfo_priority.33" vType="DEFAULT_VEHTYPE" vaporized=""/>
    <tripinfo id="priority.34" depart="105.00" departLane="middle_0" departPos="800.00" departSpeed="27.80" departDelay="-0.40" arrival="131.00" arrivalLane="end_0" arrivalPos="495.25" arrivalSpeed="27.35" duration="26.00" routeLength="685.75" waitSteps="0" rerouteNo="0" devices="tripinfo_priority.34" vType="DEFAULT_VEHTYPE" vaporized=""/>
    <tripinfo id="priority.35" depart="108.00" departLane="middle_0" departPos="800.00" departSpeed="27.80" departDelay="-0.50" arrival="134.00" arrivalLane="end_0" arrivalPos="495.25" arrivalSpeed="27.13" duration="26.00" routeLength="685.75" waitSteps="0" rerouteNo="0" devices="tripinfo_priority.35" vType="DEFAULT_VEHTYPE" vaporized=""/>
    <tripinfo id="priority.36" depart="111.00" departLane="middle_0" departPos="800.00" departSpeed="27.80" departDelay="-0.60" arrival="137.00" arrivalLane="end_0" arrivalPos="495.25" arrivalSpeed="27.59" duration="26.00" routeLength="685.75" waitSteps="0" rerouteNo="0" devices="tripinfo_priority.36" vType="DEFAULT_VEHTYPE" vaporized=""/>
    <tripinfo id="priority.37" depart="114.00" departLane="middle_0" departPos="800.00" departSpeed="27.80" departDelay="-0.70" arrival="140.00" arrivalLane="end_0" arrivalPos="495.25" arrivalSpeed="27.37" duration="26.00" routeLength="685.75" waitSteps="0" rerouteNo="0" devices="tripinfo_priority.37" vType="DEFAULT_VEHTYPE" vaporized=""/>
    <tripinfo id="priority.38" depart="117.00" departLane="middle_0" departPos="800.00" departSpeed="27.80" departDelay="-0.80" arrival="143.00" arrivalLane="end_0" arrivalPos="495.25" arrivalSpeed="27.25" duration="26.00" routeLength="685.75" waitSteps="0" rerouteNo="0" devices="tripinfo_priority.38" vType="DEFAULT_VEHTYPE" vaporized=""/>
    <tripinfo id="priority.39" depart="120.00" departLane="middle_0" departPos="800.00" departSpeed="27.80" departDelay="-0.90" arrival="146.00" arrivalLane="end_0" arrivalPos="495.25" arrivalSpeed="27.27" duration="26.00" routeLength="685.75" waitSteps="0" rerouteNo="0" devices="tripinfo_priority.39" vType="DEFAULT_VEHTYPE" vaporized=""/>
    <tripinfo id="priority.40" depart="124.00" departLane="middle_0" departPos="800.00" departSpeed="27.80" departDelay="0.00" arrival="150.00" arrivalLane="end_0" arrivalPos="495.25" arrivalSpeed="27.04" duration="26.00" routeLength="685.75" waitSteps="0" rerouteNo="0" devices="tripinfo_priority.40" vType="DEFAULT_VEHTYPE" vaporized=""/>
    <tripinfo id="priority.41" depart="127.00" departLane="middle_0" departPos="800.00" departSpeed="27.80" departDelay="-0.10" arrival="153.00" arrivalLane="end_0" arrivalPos="495.25" arrivalSpeed="27.76" duration="26.00" routeLength="685.75" waitSteps="0" rerouteNo="0" devices="tripinfo_priority.41" vType="DEFAULT_VEHTYPE" vaporized=""/>
    <tripinfo id="priority.42" depart="130.00" departLane="middle_0" departPos="800.00" departSpeed="27.80" departDelay="-0.20" arrival="156.00" arrivalLane="end_0" arrivalPos="495.25" arrivalSpeed="27.09" duration="26.00" routeLength="685.75" waitSteps="0" rerouteNo="0" devices="tripinfo_priority.42" vType="DEFAULT_VEHTYPE" vaporized=""/>
    <tripinfo id="priority.43" depart="133.00" departLane="middle_0" departPos="800.00" departSpeed="27.80" departDelay="-0.30" arrival="159.00" arrivalLane="end_0" arrivalPos="495.25" arrivalSpeed="27.76" duration="26.00" routeLength="685.75" waitSteps="0" rerouteNo="0" devices="tripinfo_priority.43" vType="DEFAULT_VEHTYPE" vaporized=""/>
    <tripinfo id="priority.44" depart="136.00" departLane="middle_0" departPos="800.00" departSpeed="27.80" departDelay="-0.40" arrival="162.00" arrivalLane="end_0" arrivalPos="495.25" arrivalSpeed="26.73" duration="26.00" routeLength="685.75" waitSteps="0" rerouteNo="0" devices="tripinfo_priority.44" vType="DEFAULT_VEHTYPE" vaporized=""/>
    <tripinfo id="priority.45" depart="139.00" departLane="middle_0" departPos="800.00" departSpeed="27.80" departDelay="-0.50" arrival="165.00" arrivalLane="end_0" arrivalPos="495.25" arrivalSpeed="26.87" duration="26.00" routeLength="685.75" waitSteps="0" rerouteNo="0" devices="tripinfo_priority.45" vType="DEFAULT_VEHTYPE" vaporized=""/>
    <tripinfo id="priority.46" depart="142.00" departLane="middle_0" departPos="800.00" departSpeed="27.80" departDelay="-0.60" arrival="168.00" arrivalLane="end_0" arrivalPos="495.25" arrivalSpeed="27.42" duration="26.00" routeLength="685.75" waitSteps="0" rerouteNo="0" devices="tripinfo_priority.46" vType="DEFAULT_VEHTYPE" vaporized=""/>
    <tripinfo id="priority.47" depart="145.00" departLane="middle_0" departPos="800.00" departSpeed="27.80" departDelay="-0.70" arrival="171.00" arrivalLane="end_0" arrivalPos="495.25" arrivalSpeed="27.49" duration="26.00" routeLength="685.75" waitSteps="0" rerouteNo="0" devices="tripinfo_priority.47" vType="DEFAULT_VEHTYPE" vaporized=""/>
    <tripinfo id="priority.48" depart="148.00" departLane="middle_0" departPos="800.00" departSpeed="27.80" departDelay="-0.80" arrival="174.00" arrivalLane="end_0" arrivalPos="495.25" arrivalSpeed="27.06" duration="26.00" routeLength="685.75" waitSteps="0" rerouteNo="0" devices="tripinfo_priority.48" vType="DEFAULT_VEHTYPE" vaporized=""/>
    <tripinfo id="priority.49" depart="151.00" departLane="middle_0" departPos="800.00" departSpeed="27.80" departDelay="-0.90" arrival="177.00" arrivalLane="end_0" arrivalPos="495.25" arrivalSpeed="27.01" duration="26.00" routeLength="685.75" waitSteps="0" rerouteNo="0" devices="tripinfo_priority.49" vType="DEFAULT_VEHTYPE" vaporized=""/>
    <tripinfo id="priority.50" depart="155.00" departLane="middle_0" departPos="800.00" departSpeed="27.80" departDelay="0.00" arrival="181.00" arrivalLane="end_0" arrivalPos="495.25" arrivalSpeed="27.74" duration="26.00" routeLength="685.75" waitSteps="0" rerouteNo="0" devices="tripinfo_priority.50" vType="DEFAULT_VEHTYPE" vaporized=""/>
    <tripinfo id="priority.51" depart="158.00" departLane="middle_0" departPos="800.00" departSpeed="27.80" departDelay="-0.10" arrival="184.00" arrivalLane="end_0" arrivalPos="495.25" arrivalSpeed="26.90" duration="26.00" routeLength="685.75" waitSteps="0" rerouteNo="0" devices="tripinfo_priority.51" vType="DEFAULT_VEHTYPE" vaporized=""/>
    <tripinfo id="priority.52" depart="161.00" departLane="middle_0" departPos="800.00" departSpeed="27.80" departDelay="-0.20" arrival="187.00" arrivalLane="end_0" arrivalPos="495.25" arrivalSpeed="26.96" duration="26.00" routeLength="685.75" waitSteps="0" rerouteNo="0" devices="tripinfo_priority.52" vType="DEFAULT_VEHTYPE" vaporized=""/>
    <tripinfo id="priority.53" depart="164.00" departLane="middle_0" departPos="800.00" departSpeed="27.80" departDelay="-0.30" arrival="190.00" arrivalLane="end_0" arrivalPos="495.25" arrivalSpeed="27.04" duration="26.00" routeLength="685.75" waitSteps="0" rerouteNo="0" devices="tripinfo_priority.53" vType="DEFAULT_VEHTYPE" vaporized=""/>
    <tripinfo id="priority.54" depart="167.00" departLane="middle_0" departPos="800.00" departSpeed="27.80" departDelay="-0.40" arrival="193.00" arrivalLane="end_0" arrivalPos="495.25" arrivalSpeed="26.56" duration="26.00" routeLength="685.75" waitSteps="0" rerouteNo="0" devices="tripinfo_priority.54" vType="DEFAULT_VEHTYPE" vaporized=""/>
    <tripinfo id="priority.55" depart="170.00" departLane="middle_0" departPos="800.00" departSpeed="27.80" departDelay="-0.50" arrival="196.00" arrivalLane="end_0" arrivalPos="495.25" arrivalSpeed="27.29" duration="26.00" routeLength="685.75" waitSteps="0" rerouteNo="0" devices="tripinfo_priority.55" vType="DEFAULT_VEHTYPE" vaporized=""/>
    <tripinfo id="priority.56" depart="173.00" departLane="middle_0" departPos="800.00" departSpeed="27.80" departDelay="-0.60" arrival="199.00" arrivalLane="end_0" arrivalPos="495.25" arrivalSpeed="26.74" duration="26.00" routeLength="685.75" waitSteps="0" rerouteNo="0" devices="tripinfo_priority.56" vType="DEFAULT_VEHTYPE" vaporized=""/>
    <tripinfo id="priority.57" depart="176.00" departLane="middle_0" departPos="800.00" departSpeed="27.80" departDelay="-0.70" arrival="202.00" arrivalLane="end_0" arrivalPos="495.25" arrivalSpeed="27.67" duration="26.00" routeLength="685.75" waitSteps="0" rerouteNo="0" devices="tripinfo_priority.57" vType="DEFAULT_VEHTYPE" vaporized=""/>
    <tripinfo id="priority.58" depart="179.00" departLane="middle_0" departPos="800.00" departSpeed="27.80" departDelay="-0.80" arrival="205.00" arrivalLane="end_0" arrivalPos="495.25" arrivalSpeed="26.61" duration="26.00" routeLength="685.75" waitSteps="0" rerouteNo="0" devices="tripinfo_priority.58" vType="DEFAULT_VEHTYPE" vaporized=""/>
    <tripinfo id="priority.59" depart="182.00" departLane="middle_0" departPos="800.00" departSpeed="27.80" departDelay="-0.90" arrival="208.00" arrivalLane="end_0" arrivalPos="495.25" arrivalSpeed="27.70" duration="26.00" routeLength="685.75" waitSteps="0" rerouteNo="0" devices="tripinfo_priority.59" vType="DEFAULT_VEHTYPE" vaporized=""/>
    <tripinfo id="priority.60" depart="186.00" departLane="middle_0" departPos="800.00" departSpeed="27.80" departDelay="0.00" arrival="212.00" arrivalLane="end_0" arrivalPos="495.25" arrivalSpeed="26.85" duration="26.00" routeLength="685.75" waitSteps="0" rerouteNo="0" devices="tripinfo_priority.60" vType="DEFAULT_VEHTYPE" vaporized=""/>
    <tripinfo id="priority.61" depart="189.00" departLane="middle_0" departPos="800.00" departSpeed="27.80" departDelay="-0.10" arrival="215.00" arrivalLane="end_0" arrivalPos="495.25" arrivalSpeed="26.72" duration="26.00" routeLength="685.75" waitSteps="0" rerouteNo="0" devices="tripinfo_priority.61" vType="DEFAULT_VEHTYPE" vaporized=""/>
    <tripinfo id="priority.62" depart="192.00" departLane="middle_0" departPos="800.00" departSpeed="27.80" departDelay="-0.20" arrival="218.00" arrivalLane="end_0" arrivalPos="495.25" arrivalSpeed="26.76" duration="26.00" routeLength="685.75" waitSteps="0" rerouteNo="0" devices="tripinfo_priority.62" vType="DEFAULT_VEHTYPE" vaporized=""/>
    <tripinfo id="priority.63" depart="195.00" departLane="middle_0" departPos="800.00" departSpeed="27.80" departDelay="-0.30" arrival="221.00" arrivalLane="end_0" arrivalPos="495.25" arrivalSpeed="27.30" duration="26.00" routeLength="685.75" waitSteps="0" rerouteNo="0" devices="tripinfo_priority.63" vType="DEFAULT_VEHTYPE" vaporized=""/>
    <tripinfo id="priority.64" depart="198.00" departLane="middle_0" departPos="800.00" departSpeed="27.80" departDelay="-0.40" arrival="224.00" arrivalLane="end_0" arrivalPos="495.25" arrivalSpeed="26.55" duration="26.00" routeLength="685.75" waitSteps="0" rerouteNo="0" devices="tripinfo_priority.64" vType="DEFAULT_VEHTYPE" vaporized=""/>
    <tripinfo id="priority.65" depart="201.00" departLane="middle_0" departPos="800.00" departSpeed="27.80" departDelay="-0.50" arrival="227.00" arrivalLane="end_0" arrivalPos="495.25" arrivalSpeed="27.78" duration="26.00" routeLength="685.75" waitSteps="0" rerouteNo="0" devices="tripinfo_priority.65" vType="DEFAULT_VEHTYPE" vaporized=""/>
    <tripinfo id="priority.66" depart="204.00" departLane="middle_0" departPos="800.00" departSpeed="27.80" departDelay="-0.60" arrival="230.00" arrivalLane="end_0" arrivalPos="495.25" arrivalSpeed="27.01" duration="26.00" routeLength="685.75" waitSteps="0" rerouteNo="0" devices="tripinfo_priority.66" vType="DEFAULT_VEHTYPE" vaporized=""/>
    <tripinfo id="priority.67" depart="207.00" departLane="middle_0" departPos="800.00" departSpeed="27.80" departDelay="-0.70" arrival="233.00" arrivalLane="end_0" arrivalPos="495.25" arrivalSpeed="26.90" duration="26.00" routeLength="685.75" waitSteps="0" rerouteNo="0" devices="tripinfo_priority.67" vType="DEFAULT_VEHTYPE" vaporized=""/>
    <tripinfo id="priority.68" depart="210.00" departLane="middle_0" departPos="800.00" departSpeed="27.80" departDelay="-0.80" arrival="236.00" arrivalLane="end_0" arrivalPos="495.25" arrivalSpeed="26.77" duration="26.00" routeLength="685.75" waitSteps="0" rerouteNo="0" devices="tripinfo_priority.68" vType="DEFAULT_VEHTYPE" vaporized=""/>
    <tripinfo id="priority.69" depart="213.00" departLane="middle_0" departPos="800.00" departSpeed="27.80" departDelay="-0.90" arrival="239.00" arrivalLane="end_0" arrivalPos="495.25" arrivalSpeed="26.64" duration="26.00" routeLength="685.75" waitSteps="0" rerouteNo="0" devices="tripinfo_priority.69" vType="DEFAULT_VEHTYPE" vaporized=""/>
    <tripinfo id="priority.70" depart="217.00" departLane="middle_0" departPos="800.00" departSpeed="27.80" departDelay="0.00" arrival="243.00" arrivalLane="end_0" arrivalPos="495.25" arrivalSpeed="26.68" duration="26.00" routeLength="685.75" waitSteps="0" rerouteNo="0" devices="tripinfo_priority.70" vType="DEFAULT_VEHTYPE" vaporized=""/>
    <tripinfo id="priority.71" depart="220.00" departLane="middle_0" departPos="800.00" departSpeed="27.80" departDelay="-0.10" arrival="246.00" arrivalLane="end_0" arrivalPos="495.25" arrivalSpeed="27.35" duration="26.00" routeLength="685.75" waitSteps="0" rerouteNo="0" devices="tripinfo_priority.71" vType="DEFAULT_VEHTYPE" vaporized=""/>
    <tripinfo id="priority.72" depart="223.00" departLane="middle_0" departPos="800.00" departSpeed="27.80" departDelay="-0.20" arrival="249.00" arrivalLane="end_0" arrivalPos="495.25" arrivalSpeed="27.09" duration="26.00" routeLength="685.75" waitSteps="0" rerouteNo="0" devices="tripinfo_priority.72" vType="DEFAULT_VEHTYPE" vaporized=""/>
    <tripinfo id="priority.73" depart="226.00" departLane="middle_0" departPos="800.00" departSpeed="27.80" departDelay="-0.30" arrival="252.00" arrivalLane="end_0" arrivalPos="495.25" arrivalSpeed="26.54" duration="26.00" routeLength="685.75" waitSteps="0" rerouteNo="0" devices="tripinfo_priority.73" vType="DEFAULT_VEHTYPE" vaporized=""/>
    <tripinfo id="priority.74" depart="229.00" departLane="middle_0" departPos="800.00" departSpeed="27.80" departDelay="-0.40" arrival="255.00" arrivalLane="end_0" arrivalPos="495.25" arrivalSpeed="27.11" duration="26.00" routeLength="685.75" waitSteps="0" rerouteNo="0" devices="tripinfo_priority.74" vType="DEFAULT_VEHTYPE" vaporized=""/>
    <tripinfo id="priority.75" depart="232.00" departLane="middle_0" departPos="800.00" departSpeed="27.80" departDelay="-0.50" arrival="258.00" arrivalLane="end_0" arrivalPos="495.25" arrivalSpeed="26.71" duration="26.00" routeLength="685.75" waitSteps="0" rerouteNo="0" devices="tripinfo_priority.75" vType="DEFAULT_VEHTYPE" vaporized=""/>
    <tripinfo id="priority.76" depart="235.00" departLane="middle_0" departPos="800.00" departSpeed="27.80" departDelay="-0.60" arrival="261.00" arrivalLane="end_0" arrivalPos="495.25" arrivalSpeed="27.74" duration="26.00" routeLength="685.75" waitSteps="0" rerouteNo="0" devices="tripinfo_priority.76" vType="DEFAULT_VEHTYPE" vaporized=""/>
    <tripinfo id="priority.77" depart="238.00" departLane="middle_0" departPos="800.00" departSpeed="27.80" departDelay="-0.70" arrival="264.00" arrivalLane="end_0" arrivalPos="495.25" arrivalSpeed="26.67" duration="26.00" routeLength="685.75" waitSteps="0" rerouteNo="0" devices="tripinfo_priority.77" vType="DEFAULT_VEHTYPE" vaporized=""/>
    <tripinfo id="priority.78" depart="241.00" departLane="middle_0" departPos="800.00" departSpeed="27.80" departDelay="-0.80" arrival="267.00" arrivalLane="end_0" arrivalPos="495.25" arrivalSpeed="27.33" duration="26.00" routeLength="685.75" waitSteps="0" rerouteNo="0" devices="tripinfo_priority.78" vType="DEFAULT_VEHTYPE" vaporized=""/>
    <tripinfo id="priority.79" depart="244.00" departLane="middle_0" departPos="800.00" departSpeed="27.80" departDelay="-0.90" arrival="270.00" arrivalLane="end_0" arrivalPos="495.25" arrivalSpeed="26.72" duration="26.00" routeLength="685.75" waitSteps="0" rerouteNo="0" devices="tripinfo_priority.79" vType="DEFAULT_VEHTYPE" vaporized=""/>
    <tripinfo id="priority.80" depart="248.00" departLane="middle_0" departPos="800.00" departSpeed="27.80" departDelay="0.00" arrival="274.00" arrivalLane="end_0" arrivalPos="495.25" arrivalSpeed="26.96" duration="26.00" routeLength="685.75" waitSteps="0" rerouteNo="0" devices="tripinfo_priority.80" vType="DEFAULT_VEHTYPE" vaporized=""/>
    <tripinfo id="priority.81" depart="251.00" departLane="middle_0" departPos="800.00" departSpeed="27.80" departDelay="-0.10" arrival="277.00" arrivalLane="end_0" arrivalPos="495.25" arrivalSpeed="27.35" duration="26.00" routeLength="685.75" waitSteps="0" rerouteNo="0" devices="tripinfo_priority.81" vType="DEFAULT_VEHTYPE" vaporized=""/>
    <tripinfo id="priority.82" depart="254.00" departLane="middle_0" departPos="800.00" departSpeed="27.80" departDelay="-0.20" arrival="280.00" arrivalLane="end_0" arrivalPos="495.25" arrivalSpeed="27.40" duration="26.00" routeLength="685.75" waitSteps="0" rerouteNo="0" devices="tripinfo_priority.82" vType="DEFAULT_VEHTYPE" vaporized=""/>
    <tripinfo id="priority.83" depart="257.00" departLane="middle_0" departPos="800.00" departSpeed="27.80" departDelay="-0.30" arrival="283.00" arrivalLane="end_0" arrivalPos="495.25" arrivalSpeed="26.52" duration="26.00" routeLength="685.75" waitSteps="0" rerouteNo="0" devices="tripinfo_priority.83" vType="DEFAULT_VEHTYPE" vaporized=""/>