<?xml version="1.0" encoding="UTF-8"?>

<!-- generated on 07/10/14 10:53:29 by SUMO sumo Version dev-SVN-r16743
<?xml version="1.0" encoding="UTF-8"?>

<configuration xmlns:xsi="http://www.w3.org/2001/XMLSchema-instance" xsi:noNamespaceSchemaLocation="http://sumo.dlr.de/xsd/sumoConfiguration.xsd">

    <input>
        <net-file value="net.net.xml"/>
        <route-files value="input_routes.rou.xml"/>
        <additional-files value="input_additional.add.xml,input_additional2.add.xml"/>
    </input>

    <time>
        <begin value="0"/>
        <end value="1000"/>
    </time>

    <report>
        <xml-validation value="never"/>
        <no-duration-log value="true"/>
        <no-step-log value="true"/>
    </report>

</configuration>
-->

<meandata xmlns:xsi="http://www.w3.org/2001/XMLSchema-instance" xsi:noNamespaceSchemaLocation="http://sumo.dlr.de/xsd/meandata_file.xsd">
    <interval begin="0.00" end="25.00" id="dump_25">
        <edge id="beg" sampledSeconds="42.00" traveltime="27.00" overlapTraveltime="27.17" density="3.37" occupancy="1.01" waitingTime="0.00" speed="18.46" departed="3" arrived="0" entered="0" left="0" laneChangedFrom="0" laneChangedTo="0"/>
    </interval>
    <interval begin="25.00" end="50.00" id="dump_25">
        <edge id="beg" sampledSeconds="60.61" traveltime="24.06" overlapTraveltime="24.53" density="4.86" occupancy="1.46" waitingTime="0.00" speed="20.45" departed="2" arrived="0" entered="0" left="3" laneChangedFrom="0" laneChangedTo="0"/>
        <edge id="middle" sampledSeconds="39.59" traveltime="353.75" overlapTraveltime="354.82" density="1.60" occupancy="0.48" waitingTime="0.00" speed="2.80" departed="0" arrived="0" entered="3" left="0" laneChangedFrom="0" laneChangedTo="0"/>
    </interval>
    <interval begin="50.00" end="75.00" id="dump_25">
        <edge id="beg" sampledSeconds="63.74" traveltime="24.85" overlapTraveltime="25.21" density="5.11" occupancy="1.53" waitingTime="0.00" speed="19.90" departed="3" arrived="0" entered="0" left="2" laneChangedFrom="0" laneChangedTo="0"/>
        <edge id="middle" sampledSeconds="101.39" traveltime="353.75" overlapTraveltime="354.82" density="4.09" occupancy="1.23" waitingTime="0.00" speed="2.80" departed="0" arrived="0" entered="2" left="0" laneChangedFrom="0" laneChangedTo="0"/>
    </interval>
    <interval begin="75.00" end="100.00" id="dump_25">
        <edge id="beg" sampledSeconds="60.61" traveltime="24.06" overlapTraveltime="24.53" density="4.86" occupancy="1.46" waitingTime="0.00" speed="20.45" departed="2" arrived="0" entered="0" left="3" laneChangedFrom="0" laneChangedTo="0"/>
        <edge id="middle" sampledSeconds="164.59" traveltime="353.75" overlapTraveltime="354.82" density="6.65" occupancy="1.99" waitingTime="0.00" speed="2.80" departed="0" arrived="0" entered="3" left="0" laneChangedFrom="0" laneChangedTo="0"/>
    </interval>
    <interval begin="100.00" end="125.00" id="dump_25">
        <edge id="beg" sampledSeconds="59.61" traveltime="23.31" overlapTraveltime="23.46" density="4.78" occupancy="1.43" waitingTime="0.00" speed="21.38" departed="3" arrived="0" entered="0" left="3" laneChangedFrom="0" laneChangedTo="0"/>
        <edge id="middle" sampledSeconds="231.93" traveltime="34.44" overlapTraveltime="34.55" density="9.37" occupancy="2.81" waitingTime="0.00" speed="28.76" departed="0" arrived="0" entered="3" left="0" laneChangedFrom="0" laneChangedTo="0"/>
    </interval>
    <interval begin="125.00" end="150.00" id="dump_25">
        <edge id="beg" sampledSeconds="56.29" traveltime="22.75" overlapTraveltime="22.89" density="4.52" occupancy="1.35" waitingTime="0.00" speed="21.91" departed="2" arrived="0" entered="0" left="2" laneChangedFrom="0" laneChangedTo="0"/>
        <edge id="end" sampledSeconds="119.55" traveltime="22.05" overlapTraveltime="22.18" density="9.59" occupancy="2.88" waitingTime="0.00" speed="22.61" departed="0" arrived="0" entered="10" left="1" laneChangedFrom="0" laneChangedTo="0"/>
        <edge id="middle" sampledSeconds="171.59" traveltime="40.57" overlapTraveltime="41.26" density="6.93" occupancy="2.08" waitingTime="0.00" speed="24.08" departed="0" arrived="0" entered="2" left="10" laneChangedFrom="0" laneChangedTo="0"/>
        <edge id="rend" sampledSeconds="1.52" traveltime="17.99" overlapTraveltime="18.09" density="0.12" occupancy="0.04" waitingTime="0.00" speed="27.80" departed="0" arrived="0" entered="1" left="0" laneChangedFrom="0" laneChangedTo="0"/>
    </interval>
    <interval begin="150.00" end="175.00" id="dump_25">
        <edge id="beg" sampledSeconds="59.43" traveltime="23.24" overlapTraveltime="23.39" density="4.77" occupancy="1.43" waitingTime="0.00" speed="21.45" departed="3" arrived="0" entered="0" left="3" laneChangedFrom="0" laneChangedTo="0"/>
        <edge id="end" sampledSeconds="118.90" traveltime="18.91" overlapTraveltime="19.01" density="9.54" occupancy="2.86" waitingTime="0.00" speed="26.38" departed="0" arrived="0" entered="3" left="10" laneChangedFrom="0" laneChangedTo="0"/>
        <edge id="middle" sampledSeconds="70.89" traveltime="28.17" overlapTraveltime="28.52" density="2.86" occupancy="0.86" waitingTime="0.00" speed="34.83" departed="0" arrived="0" entered="3" left="3" laneChangedFrom="0" laneChangedTo="0"/>
        <edge id="rend" sampledSeconds="147.49" traveltime="17.99" overlapTraveltime="18.09" density="11.80" occupancy="3.54" waitingTime="0.00" speed="27.80" departed="0" arrived="4" entered="10" left="0" laneChangedFrom="0" laneChangedTo="0"/>
    </interval>
    <interval begin="175.00" end="200.00" id="dump_25">
        <edge id="beg" sampledSeconds="56.29" traveltime="22.75" overlapTraveltime="22.89" density="4.52" occupancy="1.35" waitingTime="0.00" speed="21.91" departed="2" arrived="0" entered="0" left="2" laneChangedFrom="0" laneChangedTo="0"/>
        <edge id="end" sampledSeconds="49.26" traveltime="19.46" overlapTraveltime="19.57" density="3.95" occupancy="1.19" waitingTime="0.00" speed="25.63" departed="0" arrived="0" entered="2" left="2" laneChangedFrom="0" laneChangedTo="0"/>
        <edge id="middle" sampledSeconds="71.71" traveltime="28.26" overlapTraveltime="28.49" density="2.90" occupancy="0.87" waitingTime="0.00" speed="34.87" departed="0" arrived="0" entered="2" left="2" laneChangedFrom="0" laneChangedTo="0"/>
        <edge id="rend" sampledSeconds="75.10" traveltime="17.99" overlapTraveltime="18.09" density="6.01" occupancy="1.80" waitingTime="0.00" speed="27.80" departed="0" arrived="7" entered="2" left="0" laneChangedFrom="0" laneChangedTo="0"/>
    </interval>
    <interval begin="200.00" end="225.00" id="dump_25">
        <edge id="beg" sampledSeconds="59.43" traveltime="23.24" overlapTraveltime="23.39" density="4.77" occupancy="1.43" waitingTime="0.00" speed="21.45" departed="3" arrived="0" entered="0" left="3" laneChangedFrom="0" laneChangedTo="0"/>
        <edge id="end" sampledSeconds="48.91" traveltime="19.60" overlapTraveltime="19.70" density="3.92" occupancy="1.18" waitingTime="0.00" speed="25.46" departed="0" arrived="0" entered="3" left="3" laneChangedFrom="0" laneChangedTo="0"/>
        <edge id="middle" sampledSeconds="70.06" traveltime="27.92" overlapTraveltime="28.22" density="2.83" occupancy="0.85" waitingTime="0.00" speed="35.21" departed="0" arrived="0" entered="3" left="3" laneChangedFrom="0" laneChangedTo="0"/>
        <edge id="rend" sampledSeconds="44.27" traveltime="17.99" overlapTraveltime="18.09" density="3.54" occupancy="1.06" waitingTime="0.00" speed="27.80" departed="0" arrived="3" entered="3" left="0" laneChangedFrom="0" laneChangedTo="0"/>
    </interval>
    <interval begin="225.00" end="250.00" id="dump_25">
        <edge id="beg" sampledSeconds="56.29" traveltime="22.75" overlapTraveltime="22.89" density="4.52" occupancy="1.35" waitingTime="0.00" speed="21.91" departed="2" arrived="0" entered="0" left="2" laneChangedFrom="0" laneChangedTo="0"/>
        <edge id="end" sampledSeconds="49.27" traveltime="19.46" overlapTraveltime="19.57" density="3.95" occupancy="1.19" waitingTime="0.00" speed="25.63" departed="0" arrived="0" entered="2" left="2" laneChangedFrom="0" laneChangedTo="0"/>
        <edge id="middle" sampledSeconds="71.71" traveltime="28.26" overlapTraveltime="28.49" density="2.90" occupancy="0.87" waitingTime="0.00" speed="34.87" departed="0" arrived="0" entered="2" left="2" laneChangedFrom="0" laneChangedTo="0"/>
        <edge id="rend" sampledSeconds="46.19" traveltime="17.99" overlapTraveltime="18.09" density="3.69" occupancy="1.11" waitingTime="0.00" speed="27.80" departed="0" arrived="2" entered="2" left="0" laneChangedFrom="0" laneChangedTo="0"/>
    </interval>
    <interval begin="250.00" end="275.00" id="dump_25">
        <edge id="beg" sampledSeconds="59.43" traveltime="23.24" overlapTraveltime="23.39" density="4.77" occupancy="1.43" waitingTime="0.00" speed="21.45" departed="3" arrived="0" entered="0" left="3" laneChangedFrom="0" laneChangedTo="0"/>
        <edge id="end" sampledSeconds="48.91" traveltime="19.60" overlapTraveltime="19.70" density="3.92" occupancy="1.18" waitingTime="0.00" speed="25.46" departed="0" arrived="0" entered="3" left="3" laneChangedFrom="0" laneChangedTo="0"/>
        <edge id="middle" sampledSeconds="70.06" traveltime="27.92" overlapTraveltime="28.22" density="2.83" occupancy="0.85" waitingTime="0.00" speed="35.21" departed="0" arrived="0" entered="3" left="3" laneChangedFrom="0" laneChangedTo="0"/>
        <edge id="rend" sampledSeconds="44.28" traveltime="17.99" overlapTraveltime="18.09" density="3.54" occupancy="1.06" waitingTime="0.00" speed="27.80" departed="0" arrived="3" entered="3" left="0" laneChangedFrom="0" laneChangedTo="0"/>
    </interval>
    <interval begin="275.00" end="300.00" id="dump_25">
        <edge id="beg" sampledSeconds="56.29" traveltime="22.75" overlapTraveltime="22.89" density="4.52" occupancy="1.35" waitingTime="0.00" speed="21.91" departed="2" arrived="0" entered="0" left="2" laneChangedFrom="0" laneChangedTo="0"/>
        <edge id="end" sampledSeconds="49.27" traveltime="19.46" overlapTraveltime="19.57" density="3.95" occupancy="1.19" waitingTime="0.00" speed="25.63" departed="0" arrived="0" entered="2" left="2" laneChangedFrom="0" laneChangedTo="0"/>
        <edge id="middle" sampledSeconds="71.71" traveltime="28.26" overlapTraveltime="28.49" density="2.90" occupancy="0.87" waitingTime="0.00" speed="34.87" departed="0" arrived="0" entered="2" left="2" laneChangedFrom="0" laneChangedTo="0"/>
        <edge id="rend" sampledSeconds="46.19" traveltime="17.99" overlapTraveltime="18.09" density="3.69" occupancy="1.11" waitingTime="0.00" speed="27.80" departed="0" arrived="2" entered="2" left="0" laneChangedFrom="0" laneChangedTo="0"/>
    </interval>
    <interval begin="300.00" end="325.00" id="dump_25">
        <edge id="beg" sampledSeconds="18.29" traveltime="18.43" overlapTraveltime="18.61" density="1.47" occupancy="0.44" waitingTime="0.00" speed="26.95" departed="0" arrived="0" entered="0" left="2" laneChangedFrom="0" laneChangedTo="0"/>
        <edge id="end" sampledSeconds="48.91" traveltime="19.60" overlapTraveltime="19.70" density="3.92" occupancy="1.18" waitingTime="0.00" speed="25.46" departed="0" arrived="0" entered="3" left="3" laneChangedFrom="0" laneChangedTo="0"/>
        <edge id="middle" sampledSeconds="69.36" traveltime="27.81" overlapTraveltime="28.10" density="2.80" occupancy="0.84" waitingTime="0.00" speed="35.35" departed="0" arrived="0" entered="2" left="3" laneChangedFrom="0" laneChangedTo="0"/>
        <edge id="rend" sampledSeconds="44.28" traveltime="17.99" overlapTraveltime="18.09" density="3.54" occupancy="1.06" waitingTime="0.00" speed="27.80" departed="0" arrived="3" entered="3" left="0" laneChangedFrom="0" laneChangedTo="0"/>
    </interval>
    <interval begin="325.00" end="350.00" id="dump_25">
        <edge id="end" sampledSeconds="49.27" traveltime="19.46" overlapTraveltime="19.57" density="3.95" occupancy="1.19" waitingTime="0.00" speed="25.63" departed="0" arrived="0" entered="2" left="2" laneChangedFrom="0" laneChangedTo="0"/>
        <edge id="middle" sampledSeconds="25.30" traveltime="31.24" overlapTraveltime="31.76" density="1.02" occupancy="0.31" waitingTime="0.00" speed="31.28" departed="0" arrived="0" entered="0" left="2" laneChangedFrom="0" laneChangedTo="0"/>
        <edge id="rend" sampledSeconds="46.19" traveltime="17.99" overlapTraveltime="18.09" density="3.69" occupancy="1.11" waitingTime="0.00" speed="27.80" departed="0" arrived="2" entered="2" left="0" laneChangedFrom="0" laneChangedTo="0"/>
    </interval>
    <interval begin="350.00" end="375.00" id="dump_25">
        <edge id="end" sampledSeconds="15.13" traveltime="17.93" overlapTraveltime="18.04" density="1.21" occupancy="0.36" waitingTime="0.00" speed="27.80" departed="0" arrived="0" entered="0" left="2" laneChangedFrom="0" laneChangedTo="0"/>
        <edge id="rend" sampledSeconds="41.74" traveltime="17.99" overlapTraveltime="18.09" density="3.34" occupancy="1.00" waitingTime="0.00" speed="27.80" departed="0" arrived="3" entered="2" left="0" laneChangedFrom="0" laneChangedTo="0"/>
    </interval>
    <interval begin="375.00" end="400.00" id="dump_25">
        <edge id="rend" sampledSeconds="5.56" traveltime="17.99" overlapTraveltime="18.09" density="0.44" occupancy="0.13" waitingTime="0.00" speed="27.80" departed="0" arrived="1" entered="0" left="0" laneChangedFrom="0" laneChangedTo="0"/>
    </interval>
    <interval begin="400.00" end="425.00" id="dump_25"/>
    <interval begin="425.00" end="450.00" id="dump_25"/>
    <interval begin="450.00" end="475.00" id="dump_25"/>
    <interval begin="475.00" end="500.00" id="dump_25"/>
    <interval begin="500.00" end="525.00" id="dump_25"/>
    <interval begin="525.00" end="550.00" id="dump_25"/>
    <interval begin="550.00" end="575.00" id="dump_25"/>
    <interval begin="575.00" end="600.00" id="dump_25"/>
    <interval begin="600.00" end="625.00" id="dump_25"/>
    <interval begin="625.00" end="650.00" id="dump_25"/>
    <interval begin="650.00" end="675.00" id="dump_25"/>
    <interval begin="675.00" end="700.00" id="dump_25"/>
    <interval begin="700.00" end="725.00" id="dump_25"/>
    <interval begin="725.00" end="750.00" id="dump_25"/>
    <interval begin="750.00" end="775.00" id="dump_25"/>
    <interval begin="775.00" end="800.00" id="dump_25"/>
    <interval begin="800.00" end="825.00" id="dump_25"/>
    <interval begin="825.00" end="850.00" id="dump_25"/>
    <interval begin="850.00" end="875.00" id="dump_25"/>
    <interval begin="875.00" end="900.00" id="dump_25"/>
    <interval begin="900.00" end="925.00" id="dump_25"/>
    <interval begin="925.00" end="950.00" id="dump_25"/>
    <interval begin="950.00" end="975.00" id="dump_25"/>
    <interval begin="975.00" end="1000.00" id="dump_25"/>
</meandata>
