<?xml version="1.0"?>

<!-- generated on Thu Apr 25 13:58:51 2013 by SUMO sumo Version dev-SVN-r13699
<?xml version="1.0" encoding="UTF-8"?>

<configuration xmlns:xsi="http://www.w3.org/2001/XMLSchema-instance" xsi:noNamespaceSchemaLocation="http://sumo.sf.net/xsd/sumoConfiguration.xsd">

    <input>
        <net-file value="net.net.xml"/>
        <route-files value="input_routes.rou.xml"/>
        <additional-files value="input_additional.add.xml"/>
    </input>

    <output>
        <fcd-output value="fcd.xml"/>
    </output>

    <time>
        <step-length value="0.5"/>
    </time>

    <processing>
        <lanechange.duration value="10"/>
    </processing>

    <report>
        <no-duration-log value="true"/>
        <no-step-log value="true"/>
    </report>

</configuration>
-->

<fcd-export>
    <timestep time="0.00">
        <vehicle id="v0" x="256.60" y="491.75" angle="90.00" type="DEFAULT_VEHTYPE" speed="0.00" pos="5.10" lane="1si_0" slope="0.00"/>
    </timestep>
    <timestep time="0.50">
        <vehicle id="v0" x="257.11" y="491.75" angle="90.00" type="DEFAULT_VEHTYPE" speed="1.01" pos="5.61" lane="1si_0" slope="0.00"/>
    </timestep>
    <timestep time="1.00">
        <vehicle id="v0" x="258.05" y="491.75" angle="90.00" type="DEFAULT_VEHTYPE" speed="1.90" pos="6.55" lane="1si_0" slope="0.00"/>
    </timestep>
    <timestep time="1.50">
        <vehicle id="v0" x="259.64" y="491.75" angle="90.00" type="DEFAULT_VEHTYPE" speed="3.17" pos="8.14" lane="1si_0" slope="0.00"/>
    </timestep>
    <timestep time="2.00">
        <vehicle id="v0" x="261.71" y="491.75" angle="90.00" type="DEFAULT_VEHTYPE" speed="4.15" pos="10.21" lane="1si_0" slope="0.00"/>
    </timestep>
    <timestep time="2.50">
        <vehicle id="v0" x="264.25" y="491.75" angle="90.00" type="DEFAULT_VEHTYPE" speed="5.07" pos="12.75" lane="1si_0" slope="0.00"/>
    </timestep>
    <timestep time="3.00">
        <vehicle id="v0" x="267.42" y="491.75" angle="90.00" type="DEFAULT_VEHTYPE" speed="6.34" pos="15.92" lane="1si_0" slope="0.00"/>
    </timestep>
    <timestep time="3.50">
        <vehicle id="v0" x="270.99" y="491.75" angle="90.00" type="DEFAULT_VEHTYPE" speed="7.15" pos="19.49" lane="1si_0" slope="0.00"/>
    </timestep>
    <timestep time="4.00">
        <vehicle id="v0" x="275.14" y="491.75" angle="90.00" type="DEFAULT_VEHTYPE" speed="8.29" pos="23.64" lane="1si_0" slope="0.00"/>
    </timestep>
    <timestep time="4.50">
        <vehicle id="v0" x="279.76" y="491.75" angle="90.00" type="DEFAULT_VEHTYPE" speed="9.24" pos="28.26" lane="1si_0" slope="0.00"/>
    </timestep>
    <timestep time="5.00">
        <vehicle id="v0" x="284.79" y="491.75" angle="90.00" type="DEFAULT_VEHTYPE" speed="10.06" pos="33.29" lane="1si_0" slope="0.00"/>
    </timestep>
    <timestep time="5.50">
        <vehicle id="v0" x="290.46" y="491.75" angle="90.00" type="DEFAULT_VEHTYPE" speed="11.35" pos="38.96" lane="1si_0" slope="0.00"/>
    </timestep>
    <timestep time="6.00">
        <vehicle id="v0" x="296.57" y="491.75" angle="90.00" type="DEFAULT_VEHTYPE" speed="12.21" pos="45.07" lane="1si_0" slope="0.00"/>
    </timestep>
    <timestep time="6.50">
        <vehicle id="v0" x="303.18" y="491.75" angle="90.00" type="DEFAULT_VEHTYPE" speed="13.21" pos="51.68" lane="1si_0" slope="0.00"/>
    </timestep>
    <timestep time="7.00">
        <vehicle id="v0" x="309.97" y="491.75" angle="90.00" type="DEFAULT_VEHTYPE" speed="13.60" pos="58.47" lane="1si_0" slope="0.00"/>
    </timestep>
    <timestep time="7.50">
        <vehicle id="v0" x="316.74" y="491.75" angle="90.00" type="DEFAULT_VEHTYPE" speed="13.52" pos="65.24" lane="1si_0" slope="0.00"/>
    </timestep>
    <timestep time="8.00">
        <vehicle id="v0" x="323.59" y="491.75" angle="90.00" type="DEFAULT_VEHTYPE" speed="13.72" pos="72.09" lane="1si_0" slope="0.00"/>
    </timestep>
    <timestep time="8.50">
        <vehicle id="v0" x="330.52" y="491.75" angle="90.00" type="DEFAULT_VEHTYPE" speed="13.85" pos="79.02" lane="1si_0" slope="0.00"/>
    </timestep>
    <timestep time="9.00">
        <vehicle id="v0" x="337.18" y="491.75" angle="90.00" type="DEFAULT_VEHTYPE" speed="13.32" pos="85.68" lane="1si_0" slope="0.00"/>
    </timestep>
    <timestep time="9.50">
        <vehicle id="v0" x="344.02" y="491.75" angle="90.00" type="DEFAULT_VEHTYPE" speed="13.68" pos="92.52" lane="1si_0" slope="0.00"/>
    </timestep>
    <timestep time="10.00">
        <vehicle id="v0" x="350.74" y="491.75" angle="90.00" type="DEFAULT_VEHTYPE" speed="13.45" pos="99.24" lane="1si_0" slope="0.00"/>
    </timestep>
    <timestep time="10.50">
        <vehicle id="v0" x="357.67" y="491.75" angle="90.00" type="DEFAULT_VEHTYPE" speed="13.86" pos="106.17" lane="1si_0" slope="0.00"/>
    </timestep>
    <timestep time="11.00">
        <vehicle id="v0" x="364.45" y="491.75" angle="90.00" type="DEFAULT_VEHTYPE" speed="13.56" pos="112.95" lane="1si_0" slope="0.00"/>
    </timestep>
    <timestep time="11.50">
        <vehicle id="v0" x="371.30" y="491.75" angle="90.00" type="DEFAULT_VEHTYPE" speed="13.69" pos="119.80" lane="1si_0" slope="0.00"/>
    </timestep>
    <timestep time="12.00">
        <vehicle id="v0" x="378.04" y="491.75" angle="90.00" type="DEFAULT_VEHTYPE" speed="13.48" pos="126.54" lane="1si_0" slope="0.00"/>
    </timestep>
    <timestep time="12.50">
        <vehicle id="v0" x="384.68" y="491.75" angle="90.00" type="DEFAULT_VEHTYPE" speed="13.28" pos="133.18" lane="1si_0" slope="0.00"/>
    </timestep>
    <timestep time="13.00">
        <vehicle id="v0" x="391.35" y="491.75" angle="90.00" type="DEFAULT_VEHTYPE" speed="13.35" pos="139.85" lane="1si_0" slope="0.00"/>
    </timestep>
    <timestep time="13.50">
        <vehicle id="v0" x="398.01" y="491.75" angle="90.00" type="DEFAULT_VEHTYPE" speed="13.31" pos="146.51" lane="1si_0" slope="0.00"/>
    </timestep>
    <timestep time="14.00">
        <vehicle id="v0" x="404.83" y="491.75" angle="90.00" type="DEFAULT_VEHTYPE" speed="13.63" pos="153.33" lane="1si_0" slope="0.00"/>
    </timestep>
    <timestep time="14.50">
        <vehicle id="v0" x="411.59" y="491.92" angle="90.00" type="DEFAULT_VEHTYPE" speed="13.54" pos="160.09" lane="1si_0" slope="0.00"/>
    </timestep>
    <timestep time="15.00">
        <vehicle id="v0" x="418.46" y="492.08" angle="90.00" type="DEFAULT_VEHTYPE" speed="13.74" pos="166.96" lane="1si_0" slope="0.00"/>
    </timestep>
    <timestep time="15.50">
        <vehicle id="v0" x="425.40" y="492.25" angle="90.00" type="DEFAULT_VEHTYPE" speed="13.87" pos="173.90" lane="1si_0" slope="0.00"/>
    </timestep>
    <timestep time="16.00">
        <vehicle id="v0" x="432.24" y="492.41" angle="90.00" type="DEFAULT_VEHTYPE" speed="13.69" pos="180.74" lane="1si_0" slope="0.00"/>
    </timestep>
    <timestep time="16.50">
        <vehicle id="v0" x="438.94" y="492.57" angle="90.00" type="DEFAULT_VEHTYPE" speed="13.39" pos="187.44" lane="1si_0" slope="0.00"/>
    </timestep>
    <timestep time="17.00">
        <vehicle id="v0" x="445.83" y="492.74" angle="90.00" type="DEFAULT_VEHTYPE" speed="13.79" pos="194.33" lane="1si_0" slope="0.00"/>
    </timestep>
    <timestep time="17.50">
        <vehicle id="v0" x="452.47" y="492.91" angle="90.00" type="DEFAULT_VEHTYPE" speed="13.27" pos="200.97" lane="1si_0" slope="0.00"/>
    </timestep>
    <timestep time="18.00">
        <vehicle id="v0" x="459.20" y="493.07" angle="90.00" type="DEFAULT_VEHTYPE" speed="13.46" pos="207.70" lane="1si_0" slope="0.00"/>
    </timestep>
    <timestep time="18.50">
        <vehicle id="v0" x="464.83" y="493.24" angle="90.00" type="DEFAULT_VEHTYPE" speed="11.27" pos="213.33" lane="1si_0" slope="0.00"/>
    </timestep>
    <timestep time="19.00">
        <vehicle id="v0" x="469.76" y="493.40" angle="90.00" type="DEFAULT_VEHTYPE" speed="9.85" pos="218.26" lane="1si_0" slope="0.00"/>
    </timestep>
    <timestep time="19.50">
        <vehicle id="v0" x="473.94" y="493.56" angle="90.00" type="DEFAULT_VEHTYPE" speed="8.37" pos="222.44" lane="1si_1" slope="0.00"/>
    </timestep>
    <timestep time="20.00">
        <vehicle id="v0" x="477.35" y="493.73" angle="90.00" type="DEFAULT_VEHTYPE" speed="6.83" pos="225.85" lane="1si_1" slope="0.00"/>
    </timestep>
    <timestep time="20.50">
        <vehicle id="v0" x="479.96" y="493.89" angle="90.00" type="DEFAULT_VEHTYPE" speed="5.20" pos="228.46" lane="1si_1" slope="0.00"/>
    </timestep>
    <timestep time="21.00">
        <vehicle id="v0" x="481.75" y="494.06" angle="90.00" type="DEFAULT_VEHTYPE" speed="3.59" pos="230.25" lane="1si_1" slope="0.00"/>
    </timestep>
    <timestep time="21.50">
        <vehicle id="v0" x="484.11" y="494.23" angle="90.00" type="DEFAULT_VEHTYPE" speed="4.72" pos="232.61" lane="1si_1" slope="0.00"/>
    </timestep>
    <timestep time="22.00">
        <vehicle id="v0" x="487.05" y="494.39" angle="90.00" type="DEFAULT_VEHTYPE" speed="5.87" pos="235.55" lane="1si_1" slope="0.00"/>
    </timestep>
    <timestep time="22.50">
        <vehicle id="v0" x="513.28" y="498.35" angle="90.00" type="DEFAULT_VEHTYPE" speed="7.06" pos="1.93" lane="2o_0" slope="0.00"/>
    </timestep>
    <timestep time="23.00">
        <vehicle id="v0" x="517.28" y="498.35" angle="90.00" type="DEFAULT_VEHTYPE" speed="7.99" pos="5.93" lane="2o_0" slope="0.00"/>
    </timestep>
    <timestep time="23.50">
        <vehicle id="v0" x="521.85" y="498.35" angle="90.00" type="DEFAULT_VEHTYPE" speed="9.14" pos="10.50" lane="2o_0" slope="0.00"/>
    </timestep>
    <timestep time="24.00">
        <vehicle id="v0" x="526.80" y="498.35" angle="90.00" type="DEFAULT_VEHTYPE" speed="9.91" pos="15.45" lane="2o_0" slope="0.00"/>
    </timestep>
    <timestep time="24.50">
        <vehicle id="v0" x="532.33" y="498.35" angle="90.00" type="DEFAULT_VEHTYPE" speed="11.05" pos="20.98" lane="2o_0" slope="0.00"/>
    </timestep>
    <timestep time="25.00">
        <vehicle id="v0" x="537.66" y="498.35" angle="90.00" type="DEFAULT_VEHTYPE" speed="10.68" pos="26.31" lane="2o_0" slope="0.00"/>
    </timestep>
    <timestep time="25.50">
        <vehicle id="v0" x="542.99" y="498.35" angle="90.00" type="DEFAULT_VEHTYPE" speed="10.64" pos="31.64" lane="2o_0" slope="0.00"/>
    </timestep>
    <timestep time="26.00">
        <vehicle id="v0" x="548.35" y="498.35" angle="90.00" type="DEFAULT_VEHTYPE" speed="10.72" pos="37.00" lane="2o_0" slope="0.00"/>
    </timestep>
    <timestep time="26.50">
        <vehicle id="v0" x="553.68" y="498.35" angle="90.00" type="DEFAULT_VEHTYPE" speed="10.66" pos="42.33" lane="2o_0" slope="0.00"/>
    </timestep>
    <timestep time="27.00">
        <vehicle id="v0" x="558.93" y="498.35" angle="90.00" type="DEFAULT_VEHTYPE" speed="10.50" pos="47.58" lane="2o_0" slope="0.00"/>
    </timestep>
    <timestep time="27.50">
        <vehicle id="v0" x="564.17" y="498.35" angle="90.00" type="DEFAULT_VEHTYPE" speed="10.49" pos="52.82" lane="2o_0" slope="0.00"/>
    </timestep>
    <timestep time="28.00">
        <vehicle id="v0" x="569.63" y="498.35" angle="90.00" type="DEFAULT_VEHTYPE" speed="10.91" pos="58.28" lane="2o_0" slope="0.00"/>
    </timestep>
    <timestep time="28.50">
        <vehicle id="v0" x="575.02" y="498.35" angle="90.00" type="DEFAULT_VEHTYPE" speed="10.79" pos="63.67" lane="2o_0" slope="0.00"/>
    </timestep>
    <timestep time="29.00">
        <vehicle id="v0" x="580.39" y="498.35" angle="90.00" type="DEFAULT_VEHTYPE" speed="10.73" pos="69.04" lane="2o_0" slope="0.00"/>
    </timestep>
    <timestep time="29.50">
        <vehicle id="v0" x="585.89" y="498.35" angle="90.00" type="DEFAULT_VEHTYPE" speed="11.00" pos="74.54" lane="2o_0" slope="0.00"/>
    </timestep>
    <timestep time="30.00">
        <vehicle id="v0" x="591.13" y="498.35" angle="90.00" type="DEFAULT_VEHTYPE" speed="10.49" pos="79.78" lane="2o_0" slope="0.00"/>
    </timestep>
    <timestep time="30.50">
        <vehicle id="v0" x="596.63" y="498.35" angle="90.00" type="DEFAULT_VEHTYPE" speed="10.99" pos="85.28" lane="2o_0" slope="0.00"/>
    </timestep>
    <timestep time="31.00">
        <vehicle id="v0" x="601.97" y="498.35" angle="90.00" type="DEFAULT_VEHTYPE" speed="10.69" pos="90.62" lane="2o_0" slope="0.00"/>
    </timestep>
    <timestep time="31.50">
        <vehicle id="v0" x="607.48" y="498.35" angle="90.00" type="DEFAULT_VEHTYPE" speed="11.01" pos="96.13" lane="2o_0" slope="0.00"/>
    </timestep>
    <timestep time="32.00">
        <vehicle id="v0" x="613.03" y="498.35" angle="90.00" type="DEFAULT_VEHTYPE" speed="11.09" pos="101.68" lane="2o_0" slope="0.00"/>
    </timestep>
    <timestep time="32.50">
        <vehicle id="v0" x="618.49" y="498.35" angle="90.00" type="DEFAULT_VEHTYPE" speed="10.93" pos="107.14" lane="2o_0" slope="0.00"/>
    </timestep>
    <timestep time="33.00">
        <vehicle id="v0" x="623.87" y="498.35" angle="90.00" type="DEFAULT_VEHTYPE" speed="10.75" pos="112.52" lane="2o_0" slope="0.00"/>
    </timestep>
    <timestep time="33.50">
        <vehicle id="v0" x="629.12" y="498.35" angle="90.00" type="DEFAULT_VEHTYPE" speed="10.51" pos="117.77" lane="2o_0" slope="0.00"/>
    </timestep>
    <timestep time="34.00">
        <vehicle id="v0" x="634.65" y="498.35" angle="90.00" type="DEFAULT_VEHTYPE" speed="11.07" pos="123.30" lane="2o_0" slope="0.00"/>
    </timestep>
    <timestep time="34.50">
        <vehicle id="v0" x="640.15" y="498.35" angle="90.00" type="DEFAULT_VEHTYPE" speed="10.99" pos="128.80" lane="2o_0" slope="0.00"/>
    </timestep>
    <timestep time="35.00">
        <vehicle id="v0" x="645.38" y="498.35" angle="90.00" type="DEFAULT_VEHTYPE" speed="10.47" pos="134.03" lane="2o_0" slope="0.00"/>
    </timestep>
    <timestep time="35.50">
        <vehicle id="v0" x="650.84" y="498.35" angle="90.00" type="DEFAULT_VEHTYPE" speed="10.91" pos="139.49" lane="2o_0" slope="0.00"/>
    </timestep>
    <timestep time="36.00">
        <vehicle id="v0" x="656.28" y="498.35" angle="90.00" type="DEFAULT_VEHTYPE" speed="10.89" pos="144.93" lane="2o_0" slope="0.00"/>
    </timestep>
    <timestep time="36.50">
        <vehicle id="v0" x="661.81" y="498.35" angle="90.00" type="DEFAULT_VEHTYPE" speed="11.05" pos="150.46" lane="2o_0" slope="0.00"/>
    </timestep>
    <timestep time="37.00">
        <vehicle id="v0" x="667.18" y="498.35" angle="90.00" type="DEFAULT_VEHTYPE" speed="10.74" pos="155.83" lane="2o_0" slope="0.00"/>
    </timestep>
    <timestep time="37.50">
        <vehicle id="v0" x="672.67" y="498.35" angle="90.00" type="DEFAULT_VEHTYPE" speed="10.98" pos="161.32" lane="2o_0" slope="0.00"/>
    </timestep>
    <timestep time="38.00">
        <vehicle id="v0" x="678.16" y="498.35" angle="90.00" type="DEFAULT_VEHTYPE" speed="10.99" pos="166.81" lane="2o_0" slope="0.00"/>
    </timestep>
    <timestep time="38.50">
        <vehicle id="v0" x="683.70" y="498.35" angle="90.00" type="DEFAULT_VEHTYPE" speed="11.08" pos="172.35" lane="2o_0" slope="0.00"/>
    </timestep>
    <timestep time="39.00">
        <vehicle id="v0" x="689.23" y="498.35" angle="90.00" type="DEFAULT_VEHTYPE" speed="11.06" pos="177.88" lane="2o_0" slope="0.00"/>
    </timestep>
    <timestep time="39.50">
        <vehicle id="v0" x="694.55" y="498.35" angle="90.00" type="DEFAULT_VEHTYPE" speed="10.64" pos="183.20" lane="2o_0" slope="0.00"/>
    </timestep>
    <timestep time="40.00">
        <vehicle id="v0" x="699.99" y="498.35" angle="90.00" type="DEFAULT_VEHTYPE" speed="10.88" pos="188.64" lane="2o_0" slope="0.00"/>
    </timestep>
    <timestep time="40.50">
        <vehicle id="v0" x="705.45" y="498.35" angle="90.00" type="DEFAULT_VEHTYPE" speed="10.92" pos="194.10" lane="2o_0" slope="0.00"/>
    </timestep>
    <timestep time="41.00">
        <vehicle id="v0" x="710.94" y="498.35" angle="90.00" type="DEFAULT_VEHTYPE" speed="10.97" pos="199.59" lane="2o_0" slope="0.00"/>
    </timestep>
    <timestep time="41.50">
        <vehicle id="v0" x="716.27" y="498.35" angle="90.00" type="DEFAULT_VEHTYPE" speed="10.67" pos="204.92" lane="2o_0" slope="0.00"/>
    </timestep>
    <timestep time="42.00">
        <vehicle id="v0" x="721.69" y="498.35" angle="90.00" type="DEFAULT_VEHTYPE" speed="10.83" pos="210.34" lane="2o_0" slope="0.00"/>
    </timestep>
    <timestep time="42.50">
        <vehicle id="v0" x="727.05" y="498.35" angle="90.00" type="DEFAULT_VEHTYPE" speed="10.71" pos="215.70" lane="2o_0" slope="0.00"/>
    </timestep>
    <timestep time="43.00">
        <vehicle id="v0" x="732.48" y="498.35" angle="90.00" type="DEFAULT_VEHTYPE" speed="10.86" pos="221.13" lane="2o_0" slope="0.00"/>
    </timestep>
    <timestep time="43.50">
        <vehicle id="v0" x="737.86" y="498.35" angle="90.00" type="DEFAULT_VEHTYPE" speed="10.78" pos="226.51" lane="2o_0" slope="0.00"/>
    </timestep>
    <timestep time="44.00">
        <vehicle id="v0" x="743.15" y="498.35" angle="90.00" type="DEFAULT_VEHTYPE" speed="10.57" pos="231.80" lane="2o_0" slope="0.00"/>
    </timestep>
    <timestep time="44.50">
        <vehicle id="v0" x="748.52" y="498.35" angle="90.00" type="DEFAULT_VEHTYPE" speed="10.73" pos="237.17" lane="2o_0" slope="0.00"/>
    </timestep>
    <timestep time="45.00">
        <vehicle id="v0" x="753.93" y="498.35" angle="90.00" type="DEFAULT_VEHTYPE" speed="10.84" pos="242.58" lane="2o_0" slope="0.00"/>
    </timestep>
    <timestep time="45.50">
        <vehicle id="v0" x="759.37" y="498.35" angle="90.00" type="DEFAULT_VEHTYPE" speed="10.87" pos="248.02" lane="2o_0" slope="0.00"/>
    </timestep>
    <timestep time="46.00">
        <vehicle id="v0" x="764.61" y="498.35" angle="90.00" type="DEFAULT_VEHTYPE" speed="10.48" pos="253.26" lane="2o_0" slope="0.00"/>
    </timestep>
    <timestep time="46.50">
        <vehicle id="v0" x="770.16" y="498.35" angle="90.00" type="DEFAULT_VEHTYPE" speed="11.09" pos="258.81" lane="2o_0" slope="0.00"/>
    </timestep>
    <timestep time="47.00">
        <vehicle id="v0" x="775.61" y="498.35" angle="90.00" type="DEFAULT_VEHTYPE" speed="10.91" pos="264.26" lane="2o_0" slope="0.00"/>
    </timestep>
    <timestep time="47.50">
        <vehicle id="v0" x="781.13" y="498.35" angle="90.00" type="DEFAULT_VEHTYPE" speed="11.04" pos="269.78" lane="2o_0" slope="0.00"/>
    </timestep>
    <timestep time="48.00">
        <vehicle id="v0" x="786.40" y="498.35" angle="90.00" type="DEFAULT_VEHTYPE" speed="10.54" pos="275.05" lane="2o_0" slope="0.00"/>
    </timestep>
    <timestep time="48.50">
        <vehicle id="v0" x="791.76" y="498.35" angle="90.00" type="DEFAULT_VEHTYPE" speed="10.70" pos="280.41" lane="2o_0" slope="0.00"/>
    </timestep>
    <timestep time="49.00">
        <vehicle id="v0" x="797.01" y="498.35" angle="90.00" type="DEFAULT_VEHTYPE" speed="10.51" pos="285.66" lane="2o_0" slope="0.00"/>
    </timestep>
    <timestep time="49.50">
        <vehicle id="v0" x="802.40" y="498.35" angle="90.00" type="DEFAULT_VEHTYPE" speed="10.79" pos="291.05" lane="2o_0" slope="0.00"/>
    </timestep>
    <timestep time="50.00">
        <vehicle id="v0" x="807.82" y="498.35" angle="90.00" type="DEFAULT_VEHTYPE" speed="10.83" pos="296.47" lane="2o_0" slope="0.00"/>
    </timestep>
    <timestep time="50.50">
        <vehicle id="v0" x="813.15" y="498.35" angle="90.00" type="DEFAULT_VEHTYPE" speed="10.65" pos="301.80" lane="2o_0" slope="0.00"/>
    </timestep>
    <timestep time="51.00">
        <vehicle id="v0" x="818.55" y="498.35" angle="90.00" type="DEFAULT_VEHTYPE" speed="10.81" pos="307.20" lane="2o_0" slope="0.00"/>
    </timestep>
    <timestep time="51.50">
        <vehicle id="v0" x="823.82" y="498.35" angle="90.00" type="DEFAULT_VEHTYPE" speed="10.54" pos="312.47" lane="2o_0" slope="0.00"/>
    </timestep>
    <timestep time="52.00">
        <vehicle id="v0" x="829.19" y="498.35" angle="90.00" type="DEFAULT_VEHTYPE" speed="10.74" pos="317.84" lane="2o_0" slope="0.00"/>
    </timestep>
    <timestep time="52.50">
        <vehicle id="v0" x="834.43" y="498.35" angle="90.00" type="DEFAULT_VEHTYPE" speed="10.48" pos="323.08" lane="2o_0" slope="0.00"/>
    </timestep>
    <timestep time="53.00">
        <vehicle id="v0" x="839.89" y="498.35" angle="90.00" type="DEFAULT_VEHTYPE" speed="10.92" pos="328.54" lane="2o_0" slope="0.00"/>
    </timestep>
    <timestep time="53.50">
        <vehicle id="v0" x="845.31" y="498.35" angle="90.00" type="DEFAULT_VEHTYPE" speed="10.84" pos="333.96" lane="2o_0" slope="0.00"/>
    </timestep>
    <timestep time="54.00">
        <vehicle id="v0" x="850.75" y="498.35" angle="90.00" type="DEFAULT_VEHTYPE" speed="10.89" pos="339.40" lane="2o_0" slope="0.00"/>
    </timestep>
    <timestep time="54.50">
        <vehicle id="v0" x="856.08" y="498.35" angle="90.00" type="DEFAULT_VEHTYPE" speed="10.66" pos="344.73" lane="2o_0" slope="0.00"/>
    </timestep>
    <timestep time="55.00">
        <vehicle id="v0" x="861.60" y="498.35" angle="90.00" type="DEFAULT_VEHTYPE" speed="11.04" pos="350.25" lane="2o_0" slope="0.00"/>
    </timestep>
    <timestep time="55.50">
        <vehicle id="v0" x="867.01" y="498.35" angle="90.00" type="DEFAULT_VEHTYPE" speed="10.81" pos="355.66" lane="2o_0" slope="0.00"/>
    </timestep>
    <timestep time="56.00">
        <vehicle id="v0" x="872.35" y="498.35" angle="90.00" type="DEFAULT_VEHTYPE" speed="10.68" pos="361.00" lane="2o_0" slope="0.00"/>
    </timestep>
    <timestep time="56.50">
        <vehicle id="v0" x="877.65" y="498.35" angle="90.00" type="DEFAULT_VEHTYPE" speed="10.60" pos="366.30" lane="2o_0" slope="0.00"/>
    </timestep>
    <timestep time="57.00">
        <vehicle id="v0" x="883.11" y="498.35" angle="90.00" type="DEFAULT_VEHTYPE" speed="10.93" pos="371.76" lane="2o_0" slope="0.00"/>
    </timestep>
    <timestep time="57.50">
        <vehicle id="v0" x="888.44" y="498.35" angle="90.00" type="DEFAULT_VEHTYPE" speed="10.65" pos="377.09" lane="2o_0" slope="0.00"/>
    </timestep>
    <timestep time="58.00">
        <vehicle id="v0" x="893.95" y="498.35" angle="90.00" type="DEFAULT_VEHTYPE" speed="11.03" pos="382.60" lane="2o_0" slope="0.00"/>
    </timestep>
    <timestep time="58.50">
        <vehicle id="v0" x="899.27" y="498.35" angle="90.00" type="DEFAULT_VEHTYPE" speed="10.65" pos="387.92" lane="2o_0" slope="0.00"/>
    </timestep>
    <timestep time="59.00">
        <vehicle id="v0" x="904.78" y="498.35" angle="90.00" type="DEFAULT_VEHTYPE" speed="11.02" pos="393.43" lane="2o_0" slope="0.00"/>
    </timestep>
    <timestep time="59.50">
        <vehicle id="v0" x="910.05" y="498.35" angle="90.00" type="DEFAULT_VEHTYPE" speed="10.54" pos="398.70" lane="2o_0" slope="0.00"/>
    </timestep>
    <timestep time="60.00">
        <vehicle id="v0" x="915.49" y="498.35" angle="90.00" type="DEFAULT_VEHTYPE" speed="10.87" pos="404.14" lane="2o_0" slope="0.00"/>
    </timestep>
    <timestep time="60.50">
        <vehicle id="v0" x="920.88" y="498.35" angle="90.00" type="DEFAULT_VEHTYPE" speed="10.80" pos="409.53" lane="2o_0" slope="0.00"/>
    </timestep>
    <timestep time="61.00">
        <vehicle id="v0" x="926.43" y="498.35" angle="90.00" type="DEFAULT_VEHTYPE" speed="11.08" pos="415.08" lane="2o_0" slope="0.00"/>
    </timestep>
    <timestep time="61.50">
        <vehicle id="v0" x="931.85" y="498.35" angle="90.00" type="DEFAULT_VEHTYPE" speed="10.86" pos="420.50" lane="2o_0" slope="0.00"/>
    </timestep>
    <timestep time="62.00">
        <vehicle id="v0" x="937.19" y="498.35" angle="90.00" type="DEFAULT_VEHTYPE" speed="10.67" pos="425.84" lane="2o_0" slope="0.00"/>
    </timestep>
    <timestep time="62.50">
        <vehicle id="v0" x="942.43" y="498.35" angle="90.00" type="DEFAULT_VEHTYPE" speed="10.47" pos="431.08" lane="2o_0" slope="0.00"/>
    </timestep>
    <timestep time="63.00">
        <vehicle id="v0" x="947.71" y="498.35" angle="90.00" type="DEFAULT_VEHTYPE" speed="10.56" pos="436.36" lane="2o_0" slope="0.00"/>
    </timestep>
    <timestep time="63.50">
        <vehicle id="v0" x="953.21" y="498.35" angle="90.00" type="DEFAULT_VEHTYPE" speed="11.01" pos="441.86" lane="2o_0" slope="0.00"/>
    </timestep>
    <timestep time="64.00">
        <vehicle id="v0" x="958.47" y="498.35" angle="90.00" type="DEFAULT_VEHTYPE" speed="10.52" pos="447.12" lane="2o_0" slope="0.00"/>
    </timestep>
    <timestep time="64.50">
        <vehicle id="v0" x="963.92" y="498.35" angle="90.00" type="DEFAULT_VEHTYPE" speed="10.89" pos="452.57" lane="2o_0" slope="0.00"/>
    </timestep>
    <timestep time="65.00">
        <vehicle id="v0" x="969.26" y="498.35" angle="90.00" type="DEFAULT_VEHTYPE" speed="10.68" pos="457.91" lane="2o_0" slope="0.00"/>
    </timestep>
    <timestep time="65.50">
        <vehicle id="v0" x="974.67" y="498.35" angle="90.00" type="DEFAULT_VEHTYPE" speed="10.83" pos="463.32" lane="2o_0" slope="0.00"/>
    </timestep>
    <timestep time="66.00">
        <vehicle id="v0" x="980.03" y="498.35" angle="90.00" type="DEFAULT_VEHTYPE" speed="10.73" pos="468.68" lane="2o_0" slope="0.00"/>
    </timestep>
    <timestep time="66.50">
        <vehicle id="v0" x="985.50" y="498.35" angle="90.00" type="DEFAULT_VEHTYPE" speed="10.93" pos="474.15" lane="2o_0" slope="0.00"/>
    </timestep>
    <timestep time="67.00">
        <vehicle id="v0" x="990.93" y="498.35" angle="90.00" type="DEFAULT_VEHTYPE" speed="10.86" pos="479.58" lane="2o_0" slope="0.00"/>
    </timestep>
    <timestep time="67.50">
        <vehicle id="v0" x="996.26" y="498.35" angle="90.00" type="DEFAULT_VEHTYPE" speed="10.67" pos="484.91" lane="2o_0" slope="0.00"/>
    </timestep>
    <timestep time="68.00"/>
</fcd-export>
