<?xml version="1.0" encoding="UTF-8"?>

<!-- generated on 01/19/15 14:31:54 by SUMO Version dev-SVN-r17263
<?xml version="1.0" encoding="UTF-8"?>

<configuration xmlns:xsi="http://www.w3.org/2001/XMLSchema-instance" xsi:noNamespaceSchemaLocation="http://sumo.dlr.de/xsd/sumoConfiguration.xsd">

    <input>
        <net-file value="three_split.net.xml"/>
        <additional-files value="input_routes.rou.xml"/>
    </input>

    <output>
        <vehroute-output value="vehroutes.xml"/>
    </output>

    <time>
        <begin value="0"/>
    </time>

    <report>
        <xml-validation value="never"/>
        <no-duration-log value="true"/>
        <no-step-log value="true"/>
    </report>

    <routing>
        <device.rerouting.probability value="1"/>
    </routing>

</configuration>
-->

<routes xmlns:xsi="http://www.w3.org/2001/XMLSchema-instance" xsi:noNamespaceSchemaLocation="http://sumo.dlr.de/xsd/routes_file.xsd">
    <vehicle id="0" depart="0.00" arrival="74.00">
        <routeDistribution>
            <route replacedOnEdge="" replacedAtTime="0.00" probability="0" edges="beg beg2right right right2end end rend"/>
            <route edges="beg middle end rend"/>
        </routeDistribution>
    </vehicle>

    <vehicle id="1" depart="200.00" arrival="275.00">
        <routeDistribution>
            <route replacedOnEdge="" replacedAtTime="200.00" probability="0" edges="beg beg2right right right2end end rend"/>
            <route edges="beg middle end rend"/>
        </routeDistribution>
    </vehicle>

    <vehicle id="2" depart="400.00" arrival="475.00">
        <routeDistribution>
            <route replacedOnEdge="" replacedAtTime="400.00" probability="0" edges="beg beg2right right right2end end rend"/>
            <route edges="beg middle end rend"/>
        </routeDistribution>
    </vehicle>

    <vehicle id="3" depart="600.00" arrival="675.00">
        <routeDistribution>
            <route replacedOnEdge="" replacedAtTime="600.00" probability="0" edges="beg beg2right right right2end end rend"/>
            <route edges="beg middle end rend"/>
        </routeDistribution>
    </vehicle>

    <vehicle id="4" depart="800.00" arrival="875.00">
        <routeDistribution>
            <route replacedOnEdge="" replacedAtTime="800.00" probability="0" edges="beg beg2right right right2end end rend"/>
            <route edges="beg middle end rend"/>
        </routeDistribution>
    </vehicle>

    <vehicle id="5" depart="1000.00" arrival="1075.00">
        <routeDistribution>
            <route replacedOnEdge="" replacedAtTime="1000.00" probability="0" edges="beg beg2right right right2end end rend"/>
            <route edges="beg middle end rend"/>
        </routeDistribution>
    </vehicle>

</routes>
