<?xml version="1.0" encoding="UTF-8"?>

<!-- generated on Mon Jan 27 16:55:35 2014 by SUMO sumo Version dev-SVN-r15441
<?xml version="1.0" encoding="UTF-8"?>

<configuration xmlns:xsi="http://www.w3.org/2001/XMLSchema-instance" xsi:noNamespaceSchemaLocation="http://sumo-sim.org/xsd/sumoConfiguration.xsd">

    <input>
        <net-file value="net.net.xml"/>
        <additional-files value="input_additional.add.xml,input_additional2.add.xml"/>
    </input>

    <output>
        <netstate-dump value="rawdump.xml"/>
    </output>

    <report>
        <xml-validation value="never"/>
        <no-step-log value="true"/>
    </report>

</configuration>
-->

<netstate xmlns:xsi="http://www.w3.org/2001/XMLSchema-instance" xsi:noNamespaceSchemaLocation="http://sumo-sim.org/xsd/netstate_file.xsd">
    <timestep time="0.00">
        <edge id="CN">
            <person id="p0" pos="50.00" angle="0.00" stage="walking"/>
        </edge>
    </timestep>
    <timestep time="1.00">
        <edge id="CN">
            <person id="p0" pos="51.39" angle="0.00" stage="walking"/>
        </edge>
    </timestep>
    <timestep time="2.00">
        <edge id="CN">
            <person id="p0" pos="52.78" angle="0.00" stage="walking"/>
        </edge>
    </timestep>
    <timestep time="3.00">
        <edge id="CN">
            <person id="p0" pos="54.17" angle="0.00" stage="walking"/>
        </edge>
    </timestep>
    <timestep time="4.00">
        <edge id="CN">
            <person id="p0" pos="55.56" angle="0.00" stage="walking"/>
        </edge>
    </timestep>
    <timestep time="5.00">
        <edge id="CN">
            <person id="p0" pos="56.94" angle="0.00" stage="walking"/>
        </edge>
    </timestep>
    <timestep time="6.00">
        <edge id="CN">
            <person id="p0" pos="58.33" angle="0.00" stage="walking"/>
        </edge>
    </timestep>
    <timestep time="7.00">
        <edge id="CN">
            <person id="p0" pos="59.72" angle="0.00" stage="walking"/>
        </edge>
    </timestep>
    <timestep time="8.00">
        <edge id="CN">
            <person id="p0" pos="61.11" angle="0.00" stage="walking"/>
        </edge>
    </timestep>
    <timestep time="9.00">
        <edge id="CN">
            <person id="p0" pos="62.50" angle="0.00" stage="walking"/>
        </edge>
    </timestep>
    <timestep time="10.00">
        <edge id="CN">
            <person id="p0" pos="63.89" angle="0.00" stage="walking"/>
        </edge>
    </timestep>
    <timestep time="11.00">
        <edge id="CN">
            <person id="p0" pos="65.28" angle="0.00" stage="walking"/>
        </edge>
    </timestep>
    <timestep time="12.00">
        <edge id="CN">
            <person id="p0" pos="66.67" angle="0.00" stage="walking"/>
        </edge>
    </timestep>
    <timestep time="13.00">
        <edge id="CN">
            <person id="p0" pos="68.06" angle="0.00" stage="walking"/>
        </edge>
    </timestep>
    <timestep time="14.00">
        <edge id="CN">
            <person id="p0" pos="69.44" angle="0.00" stage="walking"/>
        </edge>
    </timestep>
    <timestep time="15.00">
        <edge id="CN">
            <person id="p0" pos="70.83" angle="0.00" stage="walking"/>
        </edge>
    </timestep>
    <timestep time="16.00">
        <edge id="CN">
            <person id="p0" pos="72.22" angle="0.00" stage="walking"/>
        </edge>
    </timestep>
    <timestep time="17.00">
        <edge id="CN">
            <person id="p0" pos="73.61" angle="0.00" stage="walking"/>
        </edge>
    </timestep>
    <timestep time="18.00">
        <edge id="CN">
            <person id="p0" pos="75.00" angle="0.00" stage="walking"/>
        </edge>
    </timestep>
    <timestep time="19.00">
        <edge id="CN">
            <person id="p0" pos="76.39" angle="0.00" stage="walking"/>
        </edge>
    </timestep>
    <timestep time="20.00">
        <edge id="CN">
            <person id="p0" pos="77.78" angle="0.00" stage="walking"/>
        </edge>
    </timestep>
    <timestep time="21.00">
        <edge id="CN">
            <person id="p0" pos="79.17" angle="0.00" stage="walking"/>
        </edge>
    </timestep>
    <timestep time="22.00">
        <edge id="CN">
            <person id="p0" pos="80.56" angle="0.00" stage="walking"/>
        </edge>
    </timestep>
    <timestep time="23.00">
        <edge id="CN">
            <person id="p0" pos="81.94" angle="0.00" stage="walking"/>
        </edge>
    </timestep>
    <timestep time="24.00">
        <edge id="CN">
            <person id="p0" pos="83.33" angle="0.00" stage="walking"/>
        </edge>
    </timestep>
    <timestep time="25.00">
        <edge id="CN">
            <person id="p0" pos="84.72" angle="0.00" stage="walking"/>
        </edge>
    </timestep>
    <timestep time="26.00">
        <edge id="CN">
            <person id="p0" pos="86.11" angle="0.00" stage="walking"/>
        </edge>
    </timestep>
    <timestep time="27.00">
        <edge id="CN">
            <person id="p0" pos="87.50" angle="0.00" stage="walking"/>
        </edge>
    </timestep>
    <timestep time="28.00">
        <edge id="CN">
            <person id="p0" pos="88.89" angle="0.00" stage="walking"/>
        </edge>
    </timestep>
    <timestep time="29.00">
        <edge id="CN">
            <person id="p0" pos="90.28" angle="0.00" stage="walking"/>
        </edge>
    </timestep>
    <timestep time="30.00">
        <edge id="CN">
            <person id="p0" pos="91.67" angle="0.00" stage="walking"/>
        </edge>
    </timestep>
    <timestep time="31.00">
        <edge id="CN">
            <person id="p0" pos="93.06" angle="0.00" stage="walking"/>
        </edge>
    </timestep>
    <timestep time="32.00">
        <edge id="CN">
            <person id="p0" pos="94.44" angle="0.00" stage="walking"/>
        </edge>
    </timestep>
    <timestep time="33.00">
        <edge id="CN">
            <person id="p0" pos="95.83" angle="0.00" stage="walking"/>
        </edge>
    </timestep>
    <timestep time="34.00">
        <edge id="CN">
            <person id="p0" pos="97.22" angle="0.00" stage="walking"/>
        </edge>
    </timestep>
    <timestep time="35.00">
        <edge id="CN">
            <person id="p0" pos="98.61" angle="0.00" stage="walking"/>
        </edge>
    </timestep>
    <timestep time="36.00">
        <edge id="CN">
            <person id="p0" pos="100.00" angle="0.00" stage="walking"/>
        </edge>
    </timestep>
    <timestep time="37.00">
        <edge id=":C_17">
            <person id="p0" pos="0.00" angle="0.00" stage="walking"/>
        </edge>
    </timestep>
    <timestep time="38.00">
        <edge id=":C_17">
            <person id="p0" pos="1.39" angle="0.00" stage="walking"/>
        </edge>
    </timestep>
    <timestep time="39.00">
        <edge id=":C_17">
            <person id="p0" pos="2.78" angle="0.00" stage="walking"/>
        </edge>
    </timestep>
    <timestep time="40.00">
        <edge id=":C_17">
            <person id="p0" pos="4.17" angle="0.00" stage="walking"/>
        </edge>
    </timestep>
    <timestep time="41.00">
        <edge id=":C_17">
            <person id="p0" pos="5.56" angle="0.00" stage="walking"/>
        </edge>
    </timestep>
    <timestep time="42.00">
        <edge id=":C_17">
            <person id="p0" pos="6.94" angle="0.00" stage="walking"/>
        </edge>
    </timestep>
    <timestep time="43.00">
        <edge id=":C_17">
            <person id="p0" pos="8.33" angle="0.00" stage="walking"/>
        </edge>
    </timestep>
    <timestep time="44.00">
        <edge id=":C_17">
            <person id="p0" pos="9.72" angle="0.00" stage="walking"/>
        </edge>
    </timestep>
    <timestep time="45.00">
        <edge id=":C_17">
            <person id="p0" pos="11.11" angle="0.00" stage="walking"/>
        </edge>
    </timestep>
    <timestep time="46.00">
        <edge id=":C_17">
            <person id="p0" pos="12.50" angle="0.00" stage="walking"/>
        </edge>
    </timestep>
    <timestep time="47.00">
        <edge id=":C_17">
            <person id="p0" pos="13.89" angle="0.00" stage="walking"/>
        </edge>
    </timestep>
    <timestep time="48.00">
        <edge id=":C_17">
            <person id="p0" pos="15.28" angle="0.00" stage="walking"/>
        </edge>
    </timestep>
    <timestep time="49.00">
        <edge id=":C_17">
            <person id="p0" pos="16.67" angle="0.00" stage="walking"/>
        </edge>
    </timestep>
    <timestep time="50.00">
        <edge id=":C_17">
            <person id="p0" pos="18.06" angle="0.00" stage="walking"/>
        </edge>
    </timestep>
    <timestep time="51.00">
        <edge id=":C_17">
            <person id="p0" pos="19.44" angle="0.00" stage="walking"/>
        </edge>
    </timestep>
    <timestep time="52.00">
        <edge id=":C_17">
            <person id="p0" pos="20.83" angle="0.00" stage="walking"/>
        </edge>
    </timestep>
    <timestep time="53.00">
        <edge id="SC">
            <person id="p0" pos="0.00" angle="0.00" stage="walking"/>
        </edge>
    </timestep>
    <timestep time="54.00">
        <edge id="SC">
            <person id="p0" pos="1.39" angle="0.00" stage="walking"/>
        </edge>
    </timestep>
    <timestep time="55.00">
        <edge id="SC">
            <person id="p0" pos="2.78" angle="0.00" stage="walking"/>
        </edge>
    </timestep>
    <timestep time="56.00">
        <edge id="SC">
            <person id="p0" pos="4.17" angle="0.00" stage="walking"/>
        </edge>
    </timestep>
    <timestep time="57.00">
        <edge id="SC">
            <person id="p0" pos="5.56" angle="0.00" stage="walking"/>
        </edge>
    </timestep>
    <timestep time="58.00">
        <edge id="SC">
            <person id="p0" pos="6.94" angle="0.00" stage="walking"/>
        </edge>
    </timestep>
    <timestep time="59.00">
        <edge id="SC">
            <person id="p0" pos="8.33" angle="0.00" stage="walking"/>
        </edge>
    </timestep>
    <timestep time="60.00">
        <edge id="SC">
            <person id="p0" pos="9.72" angle="0.00" stage="walking"/>
        </edge>
    </timestep>
    <timestep time="61.00">
        <edge id="SC">
            <person id="p0" pos="11.11" angle="0.00" stage="walking"/>
        </edge>
    </timestep>
    <timestep time="62.00">
        <edge id="SC">
            <person id="p0" pos="12.50" angle="0.00" stage="walking"/>
        </edge>
    </timestep>
    <timestep time="63.00">
        <edge id="SC">
            <person id="p0" pos="13.89" angle="0.00" stage="walking"/>
        </edge>
    </timestep>
    <timestep time="64.00">
        <edge id="SC">
            <person id="p0" pos="15.28" angle="0.00" stage="walking"/>
        </edge>
    </timestep>
    <timestep time="65.00">
        <edge id="SC">
            <person id="p0" pos="16.67" angle="0.00" stage="walking"/>
        </edge>
    </timestep>
    <timestep time="66.00">
        <edge id="SC">
            <person id="p0" pos="18.06" angle="0.00" stage="walking"/>
        </edge>
    </timestep>
    <timestep time="67.00">
        <edge id="SC">
            <person id="p0" pos="19.44" angle="0.00" stage="walking"/>
        </edge>
    </timestep>
    <timestep time="68.00">
        <edge id="SC">
            <person id="p0" pos="20.83" angle="0.00" stage="walking"/>
        </edge>
    </timestep>
    <timestep time="69.00">
        <edge id="SC">
            <person id="p0" pos="22.22" angle="0.00" stage="walking"/>
        </edge>
    </timestep>
    <timestep time="70.00">
        <edge id="SC">
            <person id="p0" pos="23.61" angle="0.00" stage="walking"/>
        </edge>
    </timestep>
    <timestep time="71.00">
        <edge id="SC">
            <person id="p0" pos="25.00" angle="0.00" stage="walking"/>
        </edge>
    </timestep>
    <timestep time="72.00">
        <edge id="SC">
            <person id="p0" pos="26.39" angle="0.00" stage="walking"/>
        </edge>
    </timestep>
    <timestep time="73.00">
        <edge id="SC">
            <person id="p0" pos="27.78" angle="0.00" stage="walking"/>
        </edge>
    </timestep>
    <timestep time="74.00">
        <edge id="SC">
            <person id="p0" pos="29.17" angle="0.00" stage="walking"/>
        </edge>
    </timestep>
    <timestep time="75.00">
        <edge id="SC">
            <person id="p0" pos="30.56" angle="0.00" stage="walking"/>
        </edge>
    </timestep>
    <timestep time="76.00">
        <edge id="SC">
            <person id="p0" pos="31.94" angle="0.00" stage="walking"/>
        </edge>
    </timestep>
    <timestep time="77.00">
        <edge id="SC">
            <person id="p0" pos="33.33" angle="0.00" stage="walking"/>
        </edge>
    </timestep>
    <timestep time="78.00">
        <edge id="SC">
            <person id="p0" pos="34.72" angle="0.00" stage="walking"/>
        </edge>
    </timestep>
    <timestep time="79.00"/>
</netstate>
