<?xml version="1.0" encoding="UTF-8"?>

<!-- generated on Wed Mar 26 15:25:20 2014 by SUMO sumo Version dev-SVN-r16032
<?xml version="1.0" encoding="UTF-8"?>

<configuration xmlns:xsi="http://www.w3.org/2001/XMLSchema-instance" xsi:noNamespaceSchemaLocation="http://sumo-sim.org/xsd/sumoConfiguration.xsd">

    <input>
        <net-file value="net.net.xml"/>
        <route-files value="input_routes.rou.xml"/>
    </input>

    <output>
        <tripinfo-output value="tripinfos.xml"/>
    </output>

    <processing>
        <pedestrian.model value="nonInteracting"/>
    </processing>

    <report>
        <xml-validation value="never"/>
        <no-step-log value="true"/>
    </report>

</configuration>
-->

<tripinfos xmlns:xsi="http://www.w3.org/2001/XMLSchema-instance" xsi:noNamespaceSchemaLocation="http://sumo-sim.org/xsd/tripinfo_file.xsd">
    <personinfo id="pEW" depart="20.00">
        <stop arrival="20.00"/>
        <walk arrival="21.00"/>
    </personinfo>
    <personinfo id="pEN" depart="25.00">
        <stop arrival="25.00"/>
        <walk arrival="26.00"/>
    </personinfo>
    <personinfo id="pWN" depart="0.00">
        <stop arrival="0.00"/>
        <walk arrival="95.00"/>
    </personinfo>
    <personinfo id="pNW" depart="10.00">
        <stop arrival="10.00"/>
        <walk arrival="108.00"/>
    </personinfo>
    <personinfo id="pWE" depart="5.00">
        <stop arrival="5.00"/>
        <walk arrival="198.00"/>
    </personinfo>
    <personinfo id="pNE" depart="15.00">
        <stop arrival="15.00"/>
        <walk arrival="211.00"/>
    </personinfo>
</tripinfos>
