<?xml version="1.0" encoding="UTF-8"?>

<!-- generated on 10/08/14 16:43:46 by SUMO sumo Version dev-SVN-r17154
<?xml version="1.0" encoding="UTF-8"?>

<configuration xmlns:xsi="http://www.w3.org/2001/XMLSchema-instance" xsi:noNamespaceSchemaLocation="http://sumo-sim.org/xsd/sumoConfiguration.xsd">

    <input>
        <net-file value="three_split.net.xml"/>
        <route-files value="input_routes.rou.xml"/>
    </input>

    <output>
        <tripinfo-output value="tripinfos.xml"/>
    </output>

    <time>
        <end value="1000"/>
    </time>

    <report>
        <xml-validation value="never"/>
        <no-duration-log value="true"/>
        <no-step-log value="true"/>
    </report>

</configuration>
-->

<tripinfos xmlns:xsi="http://www.w3.org/2001/XMLSchema-instance" xsi:noNamespaceSchemaLocation="http://sumo-sim.org/xsd/tripinfo_file.xsd">
    <containerinfo id="c1" depart="0.00">
        <stop arrival="0.00"/>
        <transport depart="0.00" arrival="77.00"/>
    </containerinfo>
    <tripinfo id="v1" depart="0.00" departLane="beg_0" departPos="0.00" departSpeed="0.00" departDelay="0.00" arrival="77.00" arrivalLane="end_0" arrivalPos="500.00" arrivalSpeed="27.80" duration="77.00" routeLength="2000.00" waitSteps="0" rerouteNo="0" devices="tripinfo_v1 container_v1" vType="DEFAULT_VEHTYPE" vaporized=""/>
</tripinfos>
