<?xml version="1.0" encoding="UTF-8"?>

<!-- generated on 07/10/14 10:53:24 by SUMO sumo Version dev-SVN-r16743
<?xml version="1.0" encoding="UTF-8"?>

<configuration xmlns:xsi="http://www.w3.org/2001/XMLSchema-instance" xsi:noNamespaceSchemaLocation="http://sumo-sim.org/xsd/sumoConfiguration.xsd">

    <input>
        <net-file value="net.net.xml"/>
        <route-files value="input_routes.rou.xml"/>
        <additional-files value="input_additional.add.xml"/>
    </input>

    <time>
        <begin value="0"/>
        <end value="1000"/>
    </time>

    <report>
        <xml-validation value="never"/>
        <no-duration-log value="true"/>
        <no-step-log value="true"/>
    </report>

</configuration>
-->

<meandata xmlns:xsi="http://www.w3.org/2001/XMLSchema-instance" xsi:noNamespaceSchemaLocation="http://sumo-sim.org/xsd/meandata_file.xsd">
    <interval begin="0.00" end="60.00" id="dump_60">
        <edge id="1fi" sampledSeconds="0.00" departed="0" arrived="0" entered="0" left="0" laneChangedFrom="0" laneChangedTo="0"/>
        <edge id="1o" sampledSeconds="0.00" departed="0" arrived="0" entered="0" left="0" laneChangedFrom="0" laneChangedTo="0"/>
        <edge id="1si" sampledSeconds="0.00" departed="0" arrived="0" entered="0" left="0" laneChangedFrom="0" laneChangedTo="0"/>
        <edge id="2fi" sampledSeconds="0.00" departed="0" arrived="0" entered="0" left="0" laneChangedFrom="0" laneChangedTo="0"/>
        <edge id="2o" sampledSeconds="0.00" departed="0" arrived="0" entered="0" left="0" laneChangedFrom="0" laneChangedTo="0"/>
        <edge id="2si" sampledSeconds="0.00" departed="0" arrived="0" entered="0" left="0" laneChangedFrom="0" laneChangedTo="0"/>
        <edge id="3fi" sampledSeconds="0.00" departed="0" arrived="0" entered="0" left="0" laneChangedFrom="0" laneChangedTo="0"/>
        <edge id="3o" sampledSeconds="0.00" departed="0" arrived="0" entered="0" left="0" laneChangedFrom="0" laneChangedTo="0"/>
        <edge id="3si" sampledSeconds="0.00" departed="0" arrived="0" entered="0" left="0" laneChangedFrom="0" laneChangedTo="0"/>
        <edge id="4fi" sampledSeconds="0.00" departed="0" arrived="0" entered="0" left="0" laneChangedFrom="0" laneChangedTo="0"/>
        <edge id="4o" sampledSeconds="0.00" departed="0" arrived="0" entered="0" left="0" laneChangedFrom="0" laneChangedTo="0"/>
        <edge id="4si" sampledSeconds="0.00" departed="0" arrived="0" entered="0" left="0" laneChangedFrom="0" laneChangedTo="0"/>
    </interval>
    <interval begin="60.00" end="120.00" id="dump_60">
        <edge id="1fi" sampledSeconds="28.00" traveltime="27.97" overlapTraveltime="28.54" density="1.88" occupancy="0.94" waitingTime="0.00" speed="8.88" departed="2" arrived="0" entered="0" left="0" laneChangedFrom="0" laneChangedTo="0"/>
        <edge id="1o" sampledSeconds="0.00" departed="0" arrived="0" entered="0" left="0" laneChangedFrom="0" laneChangedTo="0"/>
        <edge id="1si" sampledSeconds="0.00" departed="0" arrived="0" entered="0" left="0" laneChangedFrom="0" laneChangedTo="0"/>
        <edge id="2fi" sampledSeconds="28.00" traveltime="28.24" overlapTraveltime="28.81" density="1.88" occupancy="0.94" waitingTime="0.00" speed="8.80" departed="2" arrived="0" entered="0" left="0" laneChangedFrom="0" laneChangedTo="0"/>
        <edge id="2o" sampledSeconds="0.00" departed="0" arrived="0" entered="0" left="0" laneChangedFrom="0" laneChangedTo="0"/>
        <edge id="2si" sampledSeconds="0.00" departed="0" arrived="0" entered="0" left="0" laneChangedFrom="0" laneChangedTo="0"/>
        <edge id="3fi" sampledSeconds="51.00" traveltime="28.91" overlapTraveltime="29.49" density="3.42" occupancy="1.71" waitingTime="0.00" speed="8.60" departed="4" arrived="0" entered="0" left="0" laneChangedFrom="0" laneChangedTo="0"/>
        <edge id="3o" sampledSeconds="0.00" departed="0" arrived="0" entered="0" left="0" laneChangedFrom="0" laneChangedTo="0"/>
        <edge id="3si" sampledSeconds="0.00" departed="0" arrived="0" entered="0" left="0" laneChangedFrom="0" laneChangedTo="0"/>
        <edge id="4fi" sampledSeconds="0.00" departed="0" arrived="0" entered="0" left="0" laneChangedFrom="0" laneChangedTo="0"/>
        <edge id="4o" sampledSeconds="0.00" departed="0" arrived="0" entered="0" left="0" laneChangedFrom="0" laneChangedTo="0"/>
        <edge id="4si" sampledSeconds="0.00" departed="0" arrived="0" entered="0" left="0" laneChangedFrom="0" laneChangedTo="0"/>
    </interval>
    <interval begin="120.00" end="180.00" id="dump_60">
        <edge id="1fi" sampledSeconds="156.01" traveltime="26.04" overlapTraveltime="26.50" density="10.46" occupancy="5.23" waitingTime="0.00" speed="9.56" departed="6" arrived="0" entered="0" left="6" laneChangedFrom="0" laneChangedTo="0"/>
        <edge id="1o" sampledSeconds="68.83" traveltime="46.81" overlapTraveltime="47.29" density="2.35" occupancy="1.17" waitingTime="0.00" speed="10.44" departed="0" arrived="0" entered="3" left="0" laneChangedFrom="0" laneChangedTo="0"/>
        <edge id="1si" sampledSeconds="94.25" traveltime="18.59" overlapTraveltime="19.31" density="6.62" occupancy="1.10" waitingTime="0.00" speed="12.54" departed="0" arrived="0" entered="6" left="4" laneChangedFrom="0" laneChangedTo="0"/>
        <edge id="2fi" sampledSeconds="155.60" traveltime="26.09" overlapTraveltime="26.52" density="10.44" occupancy="5.22" waitingTime="0.00" speed="9.56" departed="6" arrived="0" entered="0" left="6" laneChangedFrom="0" laneChangedTo="0"/>
        <edge id="2o" sampledSeconds="0.00" departed="0" arrived="0" entered="0" left="0" laneChangedFrom="0" laneChangedTo="0"/>
        <edge id="2si" sampledSeconds="94.84" traveltime="19.21" overlapTraveltime="19.63" density="6.67" occupancy="1.11" waitingTime="2.00" speed="12.34" departed="0" arrived="0" entered="6" left="3" laneChangedFrom="0" laneChangedTo="0"/>
        <edge id="3fi" sampledSeconds="311.03" traveltime="26.09" overlapTraveltime="26.53" density="20.86" occupancy="10.43" waitingTime="0.00" speed="9.56" departed="12" arrived="0" entered="0" left="12" laneChangedFrom="0" laneChangedTo="0"/>
        <edge id="3o" sampledSeconds="0.00" departed="0" arrived="0" entered="0" left="0" laneChangedFrom="0" laneChangedTo="0"/>
        <edge id="3si" sampledSeconds="319.07" traveltime="34.98" overlapTraveltime="35.72" density="22.42" occupancy="3.74" waitingTime="136.00" speed="6.78" departed="0" arrived="0" entered="11" left="0" laneChangedFrom="0" laneChangedTo="0"/>
        <edge id="4fi" sampledSeconds="0.00" departed="0" arrived="0" entered="0" left="0" laneChangedFrom="0" laneChangedTo="0"/>
        <edge id="4o" sampledSeconds="66.99" traveltime="46.82" overlapTraveltime="47.30" density="2.28" occupancy="1.14" waitingTime="0.00" speed="10.44" departed="0" arrived="0" entered="4" left="0" laneChangedFrom="0" laneChangedTo="0"/>
        <edge id="4si" sampledSeconds="0.00" departed="0" arrived="0" entered="0" left="0" laneChangedFrom="0" laneChangedTo="0"/>
    </interval>
    <interval begin="180.00" end="240.00" id="dump_60">
        <edge id="1fi" sampledSeconds="229.60" traveltime="25.46" overlapTraveltime="25.89" density="15.40" occupancy="7.70" waitingTime="0.00" speed="9.79" departed="6" arrived="0" entered="3" left="9" laneChangedFrom="0" laneChangedTo="0"/>
        <edge id="1o" sampledSeconds="105.72" traveltime="47.19" overlapTraveltime="47.88" density="3.61" occupancy="1.80" waitingTime="0.00" speed="10.31" departed="0" arrived="0" entered="6" left="3" laneChangedFrom="0" laneChangedTo="0"/>
        <edge id="1si" sampledSeconds="305.42" traveltime="-20379.27" overlapTraveltime="42.52" density="21.46" occupancy="3.58" waitingTime="133.00" speed="5.70" departed="0" arrived="0" entered="9" left="3" laneChangedFrom="0" laneChangedTo="0"/>
        <edge id="2fi" sampledSeconds="174.45" traveltime="25.37" overlapTraveltime="25.84" density="11.70" occupancy="5.85" waitingTime="0.00" speed="9.81" departed="5" arrived="0" entered="5" left="6" laneChangedFrom="0" laneChangedTo="0"/>
        <edge id="2o" sampledSeconds="316.55" traveltime="46.96" overlapTraveltime="47.43" density="10.80" occupancy="5.40" waitingTime="0.00" speed="10.41" departed="0" arrived="0" entered="8" left="5" laneChangedFrom="0" laneChangedTo="0"/>
        <edge id="2si" sampledSeconds="304.01" traveltime="49.73" overlapTraveltime="50.33" density="21.37" occupancy="3.56" waitingTime="156.00" speed="4.81" departed="0" arrived="0" entered="6" left="7" laneChangedFrom="0" laneChangedTo="0"/>
        <edge id="3fi" sampledSeconds="311.44" traveltime="26.11" overlapTraveltime="26.53" density="20.89" occupancy="10.44" waitingTime="0.00" speed="9.56" departed="12" arrived="0" entered="0" left="12" laneChangedFrom="0" laneChangedTo="0"/>
        <edge id="3o" sampledSeconds="0.00" departed="0" arrived="0" entered="0" left="0" laneChangedFrom="0" laneChangedTo="0"/>
        <edge id="3si" sampledSeconds="350.19" traveltime="28.09" overlapTraveltime="28.80" density="24.61" occupancy="4.10" waitingTime="83.00" speed="8.41" departed="0" arrived="0" entered="13" left="14" laneChangedFrom="0" laneChangedTo="0"/>
        <edge id="4fi" sampledSeconds="108.05" traveltime="23.80" overlapTraveltime="24.27" density="7.25" occupancy="3.62" waitingTime="0.00" speed="10.45" departed="0" arrived="0" entered="8" left="2" laneChangedFrom="0" laneChangedTo="0"/>
        <edge id="4o" sampledSeconds="428.17" traveltime="46.79" overlapTraveltime="47.27" density="14.60" occupancy="7.30" waitingTime="0.00" speed="10.44" departed="0" arrived="0" entered="7" left="9" laneChangedFrom="0" laneChangedTo="0"/>
        <edge id="4si" sampledSeconds="31.23" traveltime="19.47" overlapTraveltime="19.88" density="2.19" occupancy="0.37" waitingTime="0.00" speed="12.18" departed="0" arrived="0" entered="2" left="0" laneChangedFrom="0" laneChangedTo="0"/>
    </interval>
    <interval begin="240.00" end="300.00" id="dump_60">
        <edge id="1fi" sampledSeconds="261.60" traveltime="25.05" overlapTraveltime="25.52" density="17.55" occupancy="8.77" waitingTime="0.00" speed="9.93" departed="6" arrived="0" entered="8" left="6" laneChangedFrom="0" laneChangedTo="0"/>
        <edge id="1o" sampledSeconds="393.31" traveltime="47.20" overlapTraveltime="47.69" density="13.41" occupancy="6.71" waitingTime="0.00" speed="10.35" departed="0" arrived="0" entered="3" left="8" laneChangedFrom="0" laneChangedTo="0"/>
        <edge id="1si" sampledSeconds="304.66" traveltime="-561042.55" overlapTraveltime="40.16" density="21.41" occupancy="3.57" waitingTime="104.00" speed="6.03" departed="0" arrived="0" entered="6" left="8" laneChangedFrom="0" laneChangedTo="0"/>
        <edge id="2fi" sampledSeconds="324.33" traveltime="24.99" overlapTraveltime="25.45" density="21.75" occupancy="10.88" waitingTime="0.00" speed="9.96" departed="7" arrived="0" entered="4" left="13" laneChangedFrom="0" laneChangedTo="0"/>
        <edge id="2o" sampledSeconds="282.31" traveltime="47.26" overlapTraveltime="47.74" density="9.63" occupancy="4.81" waitingTime="0.00" speed="10.34" departed="0" arrived="0" entered="11" left="4" laneChangedFrom="0" laneChangedTo="0"/>
        <edge id="2si" sampledSeconds="427.41" traveltime="35.28" overlapTraveltime="35.97" density="30.04" occupancy="5.01" waitingTime="171.00" speed="6.73" departed="0" arrived="0" entered="13" left="2" laneChangedFrom="0" laneChangedTo="0"/>
        <edge id="3fi" sampledSeconds="311.70" traveltime="26.02" overlapTraveltime="26.46" density="20.91" occupancy="10.45" waitingTime="0.00" speed="9.58" departed="12" arrived="0" entered="0" left="12" laneChangedFrom="0" laneChangedTo="0"/>
        <edge id="3o" sampledSeconds="107.02" traveltime="47.13" overlapTraveltime="47.61" density="3.65" occupancy="1.83" waitingTime="0.00" speed="10.37" departed="0" arrived="0" entered="6" left="0" laneChangedFrom="0" laneChangedTo="0"/>
        <edge id="3si" sampledSeconds="588.82" traveltime="47.45" overlapTraveltime="47.77" density="41.38" occupancy="6.90" waitingTime="292.00" speed="5.07" departed="0" arrived="0" entered="11" left="18" laneChangedFrom="0" laneChangedTo="0"/>
        <edge id="4fi" sampledSeconds="171.56" traveltime="23.79" overlapTraveltime="24.22" density="11.51" occupancy="5.75" waitingTime="0.00" speed="10.47" departed="0" arrived="0" entered="6" left="9" laneChangedFrom="0" laneChangedTo="0"/>
        <edge id="4o" sampledSeconds="541.63" traveltime="47.05" overlapTraveltime="47.53" density="18.47" occupancy="9.24" waitingTime="0.00" speed="10.39" departed="0" arrived="0" entered="17" left="5" laneChangedFrom="0" laneChangedTo="0"/>
        <edge id="4si" sampledSeconds="322.81" traveltime="-814324900.69" overlapTraveltime="34.49" density="22.69" occupancy="3.78" waitingTime="112.00" speed="7.02" departed="0" arrived="0" entered="9" left="10" laneChangedFrom="0" laneChangedTo="0"/>
    </interval>
    <interval begin="300.00" end="360.00" id="dump_60">
        <edge id="1fi" sampledSeconds="270.50" traveltime="25.39" overlapTraveltime="25.79" density="18.14" occupancy="9.07" waitingTime="0.00" speed="9.83" departed="6" arrived="0" entered="1" left="15" laneChangedFrom="0" laneChangedTo="0"/>
        <edge id="1o" sampledSeconds="282.73" traveltime="47.17" overlapTraveltime="47.69" density="9.64" occupancy="4.82" waitingTime="0.00" speed="10.35" departed="0" arrived="0" entered="9" left="1" laneChangedFrom="0" laneChangedTo="0"/>
        <edge id="1si" sampledSeconds="488.06" traveltime="-1288537355.92" overlapTraveltime="32.18" density="34.30" occupancy="5.72" waitingTime="129.00" speed="7.53" departed="0" arrived="0" entered="15" left="18" laneChangedFrom="0" laneChangedTo="0"/>
        <edge id="2fi" sampledSeconds="396.68" traveltime="24.48" overlapTraveltime="24.94" density="26.61" occupancy="13.30" waitingTime="0.00" speed="10.17" departed="6" arrived="2" entered="13" left="12" laneChangedFrom="0" laneChangedTo="0"/>
        <edge id="2o" sampledSeconds="731.70" traveltime="47.07" overlapTraveltime="47.56" density="24.96" occupancy="12.48" waitingTime="0.00" speed="10.38" departed="0" arrived="0" entered="12" left="13" laneChangedFrom="0" laneChangedTo="0"/>
        <edge id="2si" sampledSeconds="447.30" traveltime="46.11" overlapTraveltime="46.49" density="31.44" occupancy="5.24" waitingTime="214.00" speed="5.21" departed="0" arrived="0" entered="12" left="16" laneChangedFrom="0" laneChangedTo="0"/>
        <edge id="3fi" sampledSeconds="397.14" traveltime="25.30" overlapTraveltime="25.75" density="26.64" occupancy="13.32" waitingTime="0.00" speed="9.84" departed="11" arrived="5" entered="7" left="9" laneChangedFrom="0" laneChangedTo="0"/>
        <edge id="3o" sampledSeconds="223.85" traveltime="46.63" overlapTraveltime="47.10" density="7.63" occupancy="3.82" waitingTime="0.00" speed="10.48" departed="0" arrived="0" entered="1" left="7" laneChangedFrom="0" laneChangedTo="0"/>
        <edge id="3si" sampledSeconds="532.26" traveltime="55.70" overlapTraveltime="56.88" density="37.41" occupancy="6.23" waitingTime="325.00" speed="4.26" departed="0" arrived="0" entered="10" left="0" laneChangedFrom="0" laneChangedTo="0"/>
        <edge id="4fi" sampledSeconds="411.11" traveltime="23.83" overlapTraveltime="24.28" density="27.57" occupancy="13.79" waitingTime="0.00" speed="10.44" departed="0" arrived="0" entered="15" left="16" laneChangedFrom="0" laneChangedTo="0"/>
        <edge id="4o" sampledSeconds="708.70" traveltime="47.16" overlapTraveltime="47.64" density="24.17" occupancy="12.09" waitingTime="0.00" speed="10.36" departed="0" arrived="0" entered="17" left="15" laneChangedFrom="0" laneChangedTo="0"/>
        <edge id="4si" sampledSeconds="338.65" traveltime="-4163.38" overlapTraveltime="32.17" density="23.80" occupancy="3.97" waitingTime="107.00" speed="7.53" departed="0" arrived="0" entered="16" left="1" laneChangedFrom="0" laneChangedTo="0"/>
    </interval>
    <interval begin="360.00" end="420.00" id="dump_60">
        <edge id="1fi" sampledSeconds="375.22" traveltime="24.72" overlapTraveltime="25.16" density="25.17" occupancy="12.58" waitingTime="0.00" speed="10.08" departed="6" arrived="0" entered="9" left="15" laneChangedFrom="0" laneChangedTo="0"/>
        <edge id="1o" sampledSeconds="179.85" traveltime="46.67" overlapTraveltime="47.26" density="6.13" occupancy="3.07" waitingTime="0.00" speed="10.45" departed="0" arrived="0" entered="6" left="9" laneChangedFrom="0" laneChangedTo="0"/>
        <edge id="1si" sampledSeconds="447.91" traveltime="-13542.85" overlapTraveltime="35.08" density="31.48" occupancy="5.25" waitingTime="174.00" speed="6.90" departed="0" arrived="0" entered="15" left="9" laneChangedFrom="0" laneChangedTo="0"/>
        <edge id="2fi" sampledSeconds="495.11" traveltime="24.48" overlapTraveltime="24.94" density="33.21" occupancy="16.60" waitingTime="0.00" speed="10.16" departed="5" arrived="9" entered="14" left="13" laneChangedFrom="0" laneChangedTo="0"/>
        <edge id="2o" sampledSeconds="702.80" traveltime="46.88" overlapTraveltime="47.37" density="23.97" occupancy="11.99" waitingTime="0.00" speed="10.42" departed="0" arrived="0" entered="21" left="14" laneChangedFrom="0" laneChangedTo="0"/>
        <edge id="2si" sampledSeconds="901.78" traveltime="-18191.02" overlapTraveltime="58.79" density="63.38" occupancy="10.56" waitingTime="500.00" speed="4.12" departed="0" arrived="0" entered="13" left="15" laneChangedFrom="0" laneChangedTo="0"/>
        <edge id="3fi" sampledSeconds="393.03" traveltime="25.35" overlapTraveltime="25.80" density="26.36" occupancy="13.18" waitingTime="0.00" speed="9.83" departed="11" arrived="2" entered="3" left="15" laneChangedFrom="0" laneChangedTo="0"/>
        <edge id="3o" sampledSeconds="384.09" traveltime="46.91" overlapTraveltime="47.39" density="13.10" occupancy="6.55" waitingTime="0.00" speed="10.42" departed="0" arrived="0" entered="9" left="3" laneChangedFrom="0" laneChangedTo="0"/>
        <edge id="3si" sampledSeconds="465.78" traveltime="32.73" overlapTraveltime="33.37" density="32.73" occupancy="5.46" waitingTime="146.00" speed="7.26" departed="0" arrived="0" entered="15" left="15" laneChangedFrom="0" laneChangedTo="0"/>
        <edge id="4fi" sampledSeconds="398.36" traveltime="23.85" overlapTraveltime="24.30" density="26.72" occupancy="13.36" waitingTime="0.00" speed="10.43" departed="0" arrived="0" entered="20" left="14" laneChangedFrom="0" laneChangedTo="0"/>
        <edge id="4o" sampledSeconds="747.53" traveltime="47.01" overlapTraveltime="47.48" density="25.50" occupancy="12.75" waitingTime="0.00" speed="10.40" departed="0" arrived="0" entered="14" left="20" laneChangedFrom="0" laneChangedTo="0"/>
        <edge id="4si" sampledSeconds="648.74" traveltime="-9345404.91" overlapTraveltime="41.33" density="45.59" occupancy="7.60" waitingTime="199.00" speed="5.86" departed="0" arrived="0" entered="13" left="16" laneChangedFrom="0" laneChangedTo="0"/>
    </interval>
    <interval begin="420.00" end="480.00" id="dump_60">
        <edge id="1fi" sampledSeconds="255.52" traveltime="25.09" overlapTraveltime="25.56" density="17.14" occupancy="8.57" waitingTime="0.00" speed="9.92" departed="6" arrived="0" entered="7" left="6" laneChangedFrom="0" laneChangedTo="0"/>
        <edge id="1o" sampledSeconds="536.65" traveltime="47.12" overlapTraveltime="47.60" density="18.30" occupancy="9.15" waitingTime="0.00" speed="10.37" departed="0" arrived="0" entered="10" left="7" laneChangedFrom="0" laneChangedTo="0"/>
        <edge id="1si" sampledSeconds="459.49" traveltime="-25338057084.48" overlapTraveltime="60.16" density="32.29" occupancy="5.38" waitingTime="233.00" speed="4.02" departed="0" arrived="0" entered="6" left="6" laneChangedFrom="0" laneChangedTo="0"/>
        <edge id="2fi" sampledSeconds="564.67" traveltime="24.30" overlapTraveltime="24.76" density="37.87" occupancy="18.94" waitingTime="0.00" speed="10.24" departed="5" arrived="0" entered="19" left="19" laneChangedFrom="0" laneChangedTo="0"/>
        <edge id="2o" sampledSeconds="738.54" traveltime="47.04" overlapTraveltime="47.55" density="25.19" occupancy="12.59" waitingTime="0.00" speed="10.38" departed="0" arrived="0" entered="12" left="19" laneChangedFrom="0" laneChangedTo="0"/>
        <edge id="2si" sampledSeconds="554.19" traveltime="-34040476.52" overlapTraveltime="33.61" density="38.95" occupancy="6.49" waitingTime="194.00" speed="7.20" departed="0" arrived="0" entered="19" left="7" laneChangedFrom="0" laneChangedTo="0"/>
        <edge id="3fi" sampledSeconds="505.63" traveltime="25.28" overlapTraveltime="25.75" density="33.91" occupancy="16.96" waitingTime="0.00" speed="9.84" departed="13" arrived="9" entered="8" left="9" laneChangedFrom="0" laneChangedTo="0"/>
        <edge id="3o" sampledSeconds="342.24" traveltime="47.07" overlapTraveltime="47.59" density="11.67" occupancy="5.84" waitingTime="0.00" speed="10.37" departed="0" arrived="0" entered="11" left="9" laneChangedFrom="0" laneChangedTo="0"/>
        <edge id="3si" sampledSeconds="644.71" traveltime="70.84" overlapTraveltime="70.30" density="45.31" occupancy="7.55" waitingTime="403.00" speed="3.44" departed="0" arrived="0" entered="9" left="17" laneChangedFrom="0" laneChangedTo="0"/>
        <edge id="4fi" sampledSeconds="317.93" traveltime="23.80" overlapTraveltime="24.24" density="21.32" occupancy="10.66" waitingTime="0.00" speed="10.46" departed="0" arrived="0" entered="13" left="12" laneChangedFrom="0" laneChangedTo="0"/>
        <edge id="4o" sampledSeconds="782.40" traveltime="47.23" overlapTraveltime="47.71" density="26.69" occupancy="13.34" waitingTime="0.00" speed="10.35" departed="0" arrived="0" entered="16" left="13" laneChangedFrom="0" laneChangedTo="0"/>
        <edge id="4si" sampledSeconds="999.91" traveltime="-2245803.30" overlapTraveltime="73.91" density="70.27" occupancy="11.71" waitingTime="579.00" speed="3.28" departed="0" arrived="0" entered="13" left="17" laneChangedFrom="0" laneChangedTo="0"/>
    </interval>
    <interval begin="480.00" end="540.00" id="dump_60">
        <edge id="1fi" sampledSeconds="439.08" traveltime="24.56" overlapTraveltime="25.01" density="29.45" occupancy="14.72" waitingTime="0.00" speed="10.14" departed="6" arrived="0" entered="9" left="20" laneChangedFrom="0" laneChangedTo="0"/>
        <edge id="1o" sampledSeconds="391.73" traveltime="46.70" overlapTraveltime="47.18" density="13.36" occupancy="6.68" waitingTime="0.00" speed="10.46" departed="0" arrived="0" entered="7" left="9" laneChangedFrom="0" laneChangedTo="0"/>
        <edge id="1si" sampledSeconds="764.39" traveltime="-6100105.23" overlapTraveltime="43.46" density="53.72" occupancy="8.95" waitingTime="259.00" speed="5.57" departed="0" arrived="0" entered="20" left="16" laneChangedFrom="0" laneChangedTo="0"/>
        <edge id="2fi" sampledSeconds="515.82" traveltime="24.68" overlapTraveltime="25.13" density="34.60" occupancy="17.30" waitingTime="0.00" speed="10.09" departed="7" arrived="9" entered="14" left="13" laneChangedFrom="0" laneChangedTo="0"/>
        <edge id="2o" sampledSeconds="826.13" traveltime="47.00" overlapTraveltime="47.51" density="28.18" occupancy="14.09" waitingTime="0.00" speed="10.39" departed="0" arrived="0" entered="15" left="14" laneChangedFrom="0" laneChangedTo="0"/>
        <edge id="2si" sampledSeconds="754.37" traveltime="-71759035.61" overlapTraveltime="54.23" density="53.02" occupancy="8.84" waitingTime="359.00" speed="4.46" departed="0" arrived="0" entered="13" left="22" laneChangedFrom="0" laneChangedTo="0"/>
        <edge id="3fi" sampledSeconds="555.61" traveltime="25.47" overlapTraveltime="25.90" density="37.26" occupancy="18.63" waitingTime="0.00" speed="9.79" departed="13" arrived="6" entered="9" left="16" laneChangedFrom="0" laneChangedTo="0"/>
        <edge id="3o" sampledSeconds="328.31" traveltime="47.25" overlapTraveltime="47.88" density="11.20" occupancy="5.60" waitingTime="0.00" speed="10.31" departed="0" arrived="0" entered="7" left="8" laneChangedFrom="0" laneChangedTo="0"/>
        <edge id="3si" sampledSeconds="878.73" traveltime="52.60" overlapTraveltime="53.71" density="61.76" occupancy="10.29" waitingTime="521.00" speed="4.51" departed="0" arrived="0" entered="16" left="0" laneChangedFrom="0" laneChangedTo="0"/>
        <edge id="4fi" sampledSeconds="425.34" traveltime="23.83" overlapTraveltime="24.25" density="28.53" occupancy="14.26" waitingTime="0.00" speed="10.45" departed="0" arrived="0" entered="14" left="21" laneChangedFrom="0" laneChangedTo="0"/>
        <edge id="4o" sampledSeconds="690.15" traveltime="47.02" overlapTraveltime="47.50" density="23.54" occupancy="11.77" waitingTime="0.00" speed="10.39" departed="0" arrived="0" entered="16" left="14" laneChangedFrom="0" laneChangedTo="0"/>
        <edge id="4si" sampledSeconds="956.50" traveltime="7.65" overlapTraveltime="59.02" density="67.22" occupancy="11.20" waitingTime="540.00" speed="4.10" departed="0" arrived="0" entered="21" left="4" laneChangedFrom="0" laneChangedTo="0"/>
    </interval>
    <interval begin="540.00" end="600.00" id="dump_60">
        <edge id="1fi" sampledSeconds="346.27" traveltime="24.56" overlapTraveltime="25.02" density="23.22" occupancy="11.61" waitingTime="0.00" speed="10.13" departed="5" arrived="0" entered="12" left="14" laneChangedFrom="0" laneChangedTo="0"/>
        <edge id="1o" sampledSeconds="710.32" traveltime="47.21" overlapTraveltime="47.69" density="24.23" occupancy="12.11" waitingTime="0.00" speed="10.35" departed="0" arrived="0" entered="19" left="12" laneChangedFrom="0" laneChangedTo="0"/>
        <edge id="1si" sampledSeconds="1077.48" traveltime="-2482391.47" overlapTraveltime="76.57" density="75.72" occupancy="12.62" waitingTime="667.00" speed="3.16" departed="0" arrived="0" entered="14" left="14" laneChangedFrom="0" laneChangedTo="0"/>
        <edge id="2fi" sampledSeconds="550.99" traveltime="24.41" overlapTraveltime="24.87" density="36.95" occupancy="18.48" waitingTime="0.00" speed="10.19" departed="6" arrived="9" entered="15" left="15" laneChangedFrom="0" laneChangedTo="0"/>
        <edge id="2o" sampledSeconds="776.15" traveltime="47.27" overlapTraveltime="47.75" density="26.47" occupancy="13.24" waitingTime="0.00" speed="10.34" departed="0" arrived="0" entered="21" left="15" laneChangedFrom="0" laneChangedTo="0"/>
        <edge id="2si" sampledSeconds="1057.97" traveltime="-790238.80" overlapTraveltime="63.03" density="74.35" occupancy="12.39" waitingTime="590.00" speed="3.84" departed="0" arrived="0" entered="15" left="16" laneChangedFrom="0" laneChangedTo="0"/>
        <edge id="3fi" sampledSeconds="483.33" traveltime="24.86" overlapTraveltime="25.33" density="32.42" occupancy="16.21" waitingTime="0.00" speed="10.01" departed="9" arrived="1" entered="10" left="17" laneChangedFrom="0" laneChangedTo="0"/>
        <edge id="3o" sampledSeconds="657.00" traveltime="46.99" overlapTraveltime="47.47" density="22.41" occupancy="11.20" waitingTime="0.00" speed="10.40" departed="0" arrived="0" entered="15" left="11" laneChangedFrom="0" laneChangedTo="0"/>
        <edge id="3si" sampledSeconds="629.18" traveltime="-102590707.53" overlapTraveltime="39.71" density="44.22" occupancy="7.37" waitingTime="216.00" speed="6.10" departed="0" arrived="0" entered="17" left="24" laneChangedFrom="0" laneChangedTo="0"/>
        <edge id="4fi" sampledSeconds="367.17" traveltime="23.83" overlapTraveltime="24.29" density="24.63" occupancy="12.31" waitingTime="0.00" speed="10.44" departed="0" arrived="0" entered="19" left="13" laneChangedFrom="0" laneChangedTo="0"/>
        <edge id="4o" sampledSeconds="826.37" traveltime="47.02" overlapTraveltime="47.49" density="28.19" occupancy="14.09" waitingTime="0.00" speed="10.39" departed="0" arrived="0" entered="16" left="19" laneChangedFrom="0" laneChangedTo="0"/>
        <edge id="4si" sampledSeconds="829.56" traveltime="-265269258398.80" overlapTraveltime="49.24" density="58.30" occupancy="9.72" waitingTime="330.00" speed="4.92" departed="0" arrived="0" entered="12" left="24" laneChangedFrom="0" laneChangedTo="0"/>
    </interval>
    <interval begin="600.00" end="660.00" id="dump_60">
        <edge id="1fi" sampledSeconds="557.01" traveltime="24.39" overlapTraveltime="24.85" density="37.36" occupancy="18.68" waitingTime="0.00" speed="10.20" departed="6" arrived="4" entered="17" left="16" laneChangedFrom="0" laneChangedTo="0"/>
        <edge id="1o" sampledSeconds="674.20" traveltime="47.06" overlapTraveltime="47.54" density="23.00" occupancy="11.50" waitingTime="0.00" speed="10.38" departed="0" arrived="0" entered="14" left="17" laneChangedFrom="0" laneChangedTo="0"/>
        <edge id="1si" sampledSeconds="911.76" traveltime="-5827543966849.71" overlapTraveltime="59.66" density="64.08" occupancy="10.68" waitingTime="478.00" speed="4.06" departed="0" arrived="0" entered="16" left="9" laneChangedFrom="0" laneChangedTo="0"/>
        <edge id="2fi" sampledSeconds="581.21" traveltime="24.46" overlapTraveltime="24.91" density="38.98" occupancy="19.49" waitingTime="0.00" speed="10.18" departed="7" arrived="0" entered="17" left="21" laneChangedFrom="0" laneChangedTo="0"/>
        <edge id="2o" sampledSeconds="687.68" traveltime="47.00" overlapTraveltime="47.52" density="23.46" occupancy="11.73" waitingTime="0.00" speed="10.39" departed="0" arrived="0" entered="14" left="17" laneChangedFrom="0" laneChangedTo="0"/>
        <edge id="2si" sampledSeconds="694.57" traveltime="-7100044.55" overlapTraveltime="38.92" density="48.81" occupancy="8.14" waitingTime="265.00" speed="6.22" departed="0" arrived="0" entered="21" left="9" laneChangedFrom="0" laneChangedTo="0"/>
        <edge id="3fi" sampledSeconds="570.57" traveltime="24.55" overlapTraveltime="25.02" density="38.27" occupancy="19.13" waitingTime="0.00" speed="10.13" departed="8" arrived="10" entered="16" left="13" laneChangedFrom="0" laneChangedTo="0"/>