<?xml version="1.0" encoding="UTF-8"?>

<!-- generated on Wed Feb  5 11:23:23 2014 by SUMO sumo Version dev-SVN-r15541
<?xml version="1.0" encoding="UTF-8"?>

<configuration xmlns:xsi="http://www.w3.org/2001/XMLSchema-instance" xsi:noNamespaceSchemaLocation="http://sumo-sim.org/xsd/sumoConfiguration.xsd">

    <input>
        <net-file value="net.net.xml"/>
        <additional-files value="input_additional.add.xml,input_additional2.add.xml"/>
    </input>

    <output>
        <netstate-dump value="rawdump.xml"/>
    </output>

    <report>
        <xml-validation value="never"/>
        <no-step-log value="true"/>
    </report>

</configuration>
-->

<netstate xmlns:xsi="http://www.w3.org/2001/XMLSchema-instance" xsi:noNamespaceSchemaLocation="http://sumo-sim.org/xsd/netstate_file.xsd">
    <timestep time="0.00">
        <edge id="CS">
            <person id="p0" pos="20.00" angle="180.00" stage="walking"/>
        </edge>
    </timestep>
    <timestep time="1.00">
        <edge id="CS">
            <person id="p0" pos="18.61" angle="180.00" stage="walking"/>
        </edge>
    </timestep>
    <timestep time="2.00">
        <edge id="CS">
            <person id="p0" pos="17.22" angle="180.00" stage="walking"/>
        </edge>
    </timestep>
    <timestep time="3.00">
        <edge id="CS">
            <person id="p0" pos="15.83" angle="180.00" stage="walking"/>
        </edge>
    </timestep>
    <timestep time="4.00">
        <edge id="CS">
            <person id="p0" pos="14.44" angle="180.00" stage="walking"/>
        </edge>
    </timestep>
    <timestep time="5.00">
        <edge id="CS">
            <person id="p0" pos="13.06" angle="180.00" stage="walking"/>
        </edge>
    </timestep>
    <timestep time="6.00">
        <edge id="CS">
            <person id="p0" pos="11.67" angle="180.00" stage="walking"/>
        </edge>
    </timestep>
    <timestep time="7.00">
        <edge id="CS">
            <person id="p0" pos="10.28" angle="180.00" stage="walking"/>
        </edge>
    </timestep>
    <timestep time="8.00">
        <edge id="CS">
            <person id="p0" pos="8.89" angle="180.00" stage="walking"/>
        </edge>
    </timestep>
    <timestep time="9.00">
        <edge id="CS">
            <person id="p0" pos="7.50" angle="180.00" stage="walking"/>
        </edge>
    </timestep>
    <timestep time="10.00">
        <edge id="CS">
            <person id="p0" pos="6.11" angle="180.00" stage="walking"/>
        </edge>
    </timestep>
    <timestep time="11.00">
        <edge id="CS">
            <person id="p0" pos="4.72" angle="180.00" stage="walking"/>
        </edge>
    </timestep>
    <timestep time="12.00">
        <edge id="CS">
            <person id="p0" pos="3.33" angle="180.00" stage="walking"/>
        </edge>
    </timestep>
    <timestep time="13.00">
        <edge id="CS">
            <person id="p0" pos="1.94" angle="180.00" stage="walking"/>
        </edge>
    </timestep>
    <timestep time="14.00">
        <edge id="CS">
            <person id="p0" pos="0.56" angle="180.00" stage="walking"/>
        </edge>
    </timestep>
    <timestep time="15.00">
        <edge id=":C_34">
            <person id="p0" pos="4.32" angle="180.00" stage="walking"/>
        </edge>
    </timestep>
    <timestep time="16.00">
        <edge id=":C_34">
            <person id="p0" pos="2.93" angle="180.00" stage="walking"/>
        </edge>
    </timestep>
    <timestep time="17.00">
        <edge id=":C_34">
            <person id="p0" pos="1.54" angle="90.00" stage="walking"/>
        </edge>
    </timestep>
    <timestep time="18.00">
        <edge id=":C_34">
            <person id="p0" pos="0.15" angle="90.00" stage="walking"/>
        </edge>
    </timestep>
    <timestep time="19.00">
        <edge id=":C_30">
            <person id="p0" pos="1.24" angle="90.00" stage="walking"/>
        </edge>
    </timestep>
    <timestep time="20.00">
        <edge id=":C_30">
            <person id="p0" pos="2.63" angle="90.00" stage="walking"/>
        </edge>
    </timestep>
    <timestep time="21.00">
        <edge id=":C_30">
            <person id="p0" pos="4.02" angle="90.00" stage="walking"/>
        </edge>
    </timestep>
    <timestep time="22.00">
        <edge id=":C_30">
            <person id="p0" pos="5.41" angle="90.00" stage="walking"/>
        </edge>
    </timestep>
    <timestep time="23.00">
        <edge id=":C_30">
            <person id="p0" pos="6.79" angle="90.00" stage="walking"/>
        </edge>
    </timestep>
    <timestep time="24.00">
        <edge id=":C_30">
            <person id="p0" pos="8.18" angle="90.00" stage="walking"/>
        </edge>
    </timestep>
    <timestep time="25.00">
        <edge id=":C_30">
            <person id="p0" pos="9.57" angle="90.00" stage="walking"/>
        </edge>
    </timestep>
    <timestep time="26.00">
        <edge id=":C_30">
            <person id="p0" pos="10.96" angle="90.00" stage="walking"/>
        </edge>
    </timestep>
    <timestep time="27.00">
        <edge id=":C_30">
            <person id="p0" pos="12.35" angle="90.00" stage="walking"/>
        </edge>
    </timestep>
    <timestep time="28.00">
        <edge id=":C_30">
            <person id="p0" pos="13.74" angle="90.00" stage="walking"/>
        </edge>
    </timestep>
    <timestep time="29.00">
        <edge id=":C_30">
            <person id="p0" pos="15.13" angle="90.00" stage="walking"/>
        </edge>
    </timestep>
    <timestep time="30.00">
        <edge id=":C_30">
            <person id="p0" pos="16.52" angle="90.00" stage="walking"/>
        </edge>
    </timestep>
    <timestep time="31.00">
        <edge id=":C_30">
            <person id="p0" pos="17.91" angle="90.00" stage="walking"/>
        </edge>
    </timestep>
    <timestep time="32.00">
        <edge id=":C_33">
            <person id="p0" pos="2.18" angle="90.00" stage="walking"/>
        </edge>
    </timestep>
    <timestep time="33.00">
        <edge id=":C_33">
            <person id="p0" pos="3.57" angle="90.00" stage="walking"/>
        </edge>
    </timestep>
    <timestep time="34.00">
        <edge id=":C_33">
            <person id="p0" pos="4.96" angle="90.00" stage="walking"/>
        </edge>
    </timestep>
    <timestep time="35.00">
        <edge id="CE">
            <person id="p0" pos="2.37" angle="90.00" stage="walking"/>
        </edge>
    </timestep>
    <timestep time="36.00">
        <edge id="CE">
            <person id="p0" pos="3.75" angle="90.00" stage="walking"/>
        </edge>
    </timestep>
    <timestep time="37.00">
        <edge id="CE">
            <person id="p0" pos="5.14" angle="90.00" stage="walking"/>
        </edge>
    </timestep>
    <timestep time="38.00">
        <edge id="CE">
            <person id="p0" pos="6.53" angle="90.00" stage="walking"/>
        </edge>
    </timestep>
    <timestep time="39.00">
        <edge id="CE">
            <person id="p0" pos="7.92" angle="90.00" stage="walking"/>
        </edge>
    </timestep>
    <timestep time="40.00">
        <edge id="CE">
            <person id="p0" pos="9.31" angle="90.00" stage="walking"/>
        </edge>
    </timestep>
    <timestep time="41.00">
        <edge id="CE">
            <person id="p0" pos="10.70" angle="90.00" stage="walking"/>
        </edge>
    </timestep>
    <timestep time="42.00">
        <edge id="CE">
            <person id="p0" pos="12.09" angle="90.00" stage="walking"/>
        </edge>
    </timestep>
    <timestep time="43.00">
        <edge id="CE">
            <person id="p0" pos="13.48" angle="90.00" stage="walking"/>
        </edge>
    </timestep>
    <timestep time="44.00">
        <edge id="CE">
            <person id="p0" pos="14.87" angle="90.00" stage="walking"/>
        </edge>
    </timestep>
    <timestep time="45.00">
        <edge id="CE">
            <person id="p0" pos="16.25" angle="90.00" stage="walking"/>
        </edge>
    </timestep>
    <timestep time="46.00">
        <edge id="CE">
            <person id="p0" pos="17.64" angle="90.00" stage="walking"/>
        </edge>
    </timestep>
    <timestep time="47.00">
        <edge id="CE">
            <person id="p0" pos="19.03" angle="90.00" stage="walking"/>
        </edge>
    </timestep>
    <timestep time="48.00"/>
</netstate>
