<?xml version="1.0" encoding="UTF-8"?>

<!-- generated on 07/10/14 10:53:34 by SUMO sumo Version dev-SVN-r16743
<?xml version="1.0" encoding="UTF-8"?>

<configuration xmlns:xsi="http://www.w3.org/2001/XMLSchema-instance" xsi:noNamespaceSchemaLocation="http://sumo.dlr.de/xsd/sumoConfiguration.xsd">

    <input>
        <net-file value="three_split.net.xml"/>
        <route-files value="input_routes.rou.xml"/>
        <additional-files value="input_additional.add.xml"/>
    </input>

    <time>
        <end value="5401"/>
    </time>

    <report>
        <xml-validation value="never"/>
        <no-duration-log value="true"/>
        <no-step-log value="true"/>
    </report>

</configuration>
-->

<meandata xmlns:xsi="http://www.w3.org/2001/XMLSchema-instance" xsi:noNamespaceSchemaLocation="http://sumo.dlr.de/xsd/meandata_file.xsd">
    <interval begin="0.00" end="3600.00" id="expect_2500_vehs">
        <edge id="beg" sampledSeconds="34557.23" traveltime="23.88" overlapTraveltime="24.20" density="19.20" occupancy="9.60" waitingTime="0.00" speed="20.87" departed="1440" arrived="0" entered="0" left="1431" laneChangedFrom="0" laneChangedTo="0"/>
        <edge id="beg2left" sampledSeconds="0.00" departed="0" arrived="0" entered="0" left="0" laneChangedFrom="0" laneChangedTo="0"/>
        <edge id="beg2right" sampledSeconds="0.00" departed="0" arrived="0" entered="0" left="0" laneChangedFrom="0" laneChangedTo="0"/>
        <edge id="end" sampledSeconds="194183.68" traveltime="503.50" overlapTraveltime="501.87" density="107.88" occupancy="53.94" waitingTime="0.00" speed="1.01" departed="0" arrived="0" entered="417" left="358" laneChangedFrom="0" laneChangedTo="0"/>
        <edge id="left" sampledSeconds="0.00" departed="0" arrived="0" entered="0" left="0" laneChangedFrom="0" laneChangedTo="0"/>
        <edge id="left2end" sampledSeconds="0.00" departed="0" arrived="0" entered="0" left="0" laneChangedFrom="0" laneChangedTo="0"/>
        <edge id="middle" sampledSeconds="390128.96" traveltime="795.01" overlapTraveltime="802.02" density="108.37" occupancy="54.18" waitingTime="0.00" speed="1.25" departed="0" arrived="0" entered="1431" left="1317" laneChangedFrom="0" laneChangedTo="0" vaporized="900"/>
        <edge id="rend" sampledSeconds="8239.73" traveltime="22.95" overlapTraveltime="23.13" density="4.58" occupancy="2.29" waitingTime="0.00" speed="21.83" departed="0" arrived="355" entered="358" left="0" laneChangedFrom="0" laneChangedTo="0"/>
        <edge id="right" sampledSeconds="0.00" departed="0" arrived="0" entered="0" left="0" laneChangedFrom="0" laneChangedTo="0"/>
        <edge id="right2end" sampledSeconds="0.00" departed="0" arrived="0" entered="0" left="0" laneChangedFrom="0" laneChangedTo="0"/>
    </interval>
</meandata>
